<LesHouchesEvents version="3.0">
<!--
file generated with POWHEG-BOX-V2
SVN status Begin
/afs/cern.ch/work/p/pdas/lhe/Fall17/VBF/CMSSW_9_3_0/src/ggM125/POWHEG-BOX
URL: svn://powhegbox.mib.infn.it/trunk/POWHEG-BOX-V2
Rev.3453
Warning: not a clean version:
M       include/pwhg_lhrwgt.h
M       include/pwhg_rwl.h
M       lhefwrite.f
/afs/cern.ch/work/p/pdas/lhe/Fall17/VBF/CMSSW_9_3_0/src/ggM125/POWHEG-BOX/gg_H_quark-mass-effects
URL: svn://powhegbox.mib.infn.it/trunk/User-Processes-V2/gg_H_quark-mass-effects
Rev.3453
Warning: not a clean version:
?       pwhg_analysis-dummy.f
M       Makefile
SVN status End
Process: gg_H_quark-mass-effects
Input file powheg.input contained:
numevts 50
ih1   1           ! hadron 1 (1 for protons, -1 for antiprotons)
ih2   1           ! hadron 2 (1 for protons, -1 for antiprotons)
ebeam1 6500     ! energy of beam 1
ebeam2 6500    ! energy of beam 2

lhans1 306000       ! pdf set for hadron 1 (LHA numbering)
lhans2 306000       ! pdf set for hadron 2 (LHA numbering)

! Parameters to allow or not the use of stored data
use-old-grid    1 ! if 1 use old grid if file pwggrids.dat is present (<> 1 regenerate)
use-old-ubound  1 ! if 1 use norm of upper bounding function stored in pwgubound.dat, if present; <>

ncall1 50000   ! number of calls for initializing the integration grid
itmx1  5    ! number of iterations for initializing the integration grid
ncall2 50000    ! number of calls for computing the integral and finding upper bound
itmx2  5     ! number of iterations for computing the integral and finding upper bound
foldcsi   1    ! number of folds on csi integration
foldy     1    ! number of folds on  y  integration
foldphi   1    ! number of folds on phi integration
nubound 50000  ! number of bbarra calls to setup norm of upper bounding function
icsimax  1     ! <= 100, number of csi subdivision when computing the upper bounds
iymax    1     ! <= 100, number of y subdivision when computing the upper bounds
xupbound 2d0   ! increase upper bound for radiation generation

! OPTIONAL PARAMETERS

renscfact  1   ! (default 1d0) ren scale factor: muren  = muref * renscfact
facscfact  1   ! (default 1d0) fac scale factor: mufact = muref * facscfact
testplots  1      ! (default 0, do not) do NLO and PWHG distributions
hfact    60.0d0    ! (default no dumping factor) dump factor for high-pt radiation: > 0 dumpfac=h**2
runningscale 1    ! 0 = scales equal to the Higgs pole mass; 1  = scales equal to the Higgs virtuali
                  ! 2 = scales equal to the Higgs pole mass for Born-like configuration and to the t

iseed 1

! GGF_H production:
! **** Mandatory parameters for ALL models ****
massren 0           ! Mass renormalization scheme. 0 = OS, 1 = MSBAR , 2 = DRBAR
zerowidth 0         ! Control if the Higgs boson is to be produced on-shell or not: 1 = On-Shell; 0
ew 1                ! ew = 0 disable EW corrections - ew = 1 enable EW corrections
model 0
gfermi 0.116637D-04        ! GF
hdecaymode -1      ! PDG code for first decay product of the higgs
masswindow 1d0  !(default 10d0) number of widths around hmass in the BW for an off-shell Higgs boson

! **** Mandatory parameters for SM or MW ****
hmass 125d0            ! Higgs boson mass
hwidth 0.00407D0     ! Higgs boson width
topmass 172.5        ! top quark mass
bottommass 4.75d0    ! bottom quark mass - if defined it enables the bottom quark

! Optional
hdecaywidth 0        ! If equals to 1 read total decay width from HDECAY sm.br2 file
#withnegweights 1 1
#pdfreweight 0
#storeinfo_rwgt 0
bwshape 3 ! complex-pole scheme according to Passarino et al.


#manyseeds 1

#parallelstage 4

#xgriditeration 1 1
rwl_group_events 2000
lhapdf6maxsets 50
rwl_file 'pwg-rwl.dat'
rwl_format_rwgt 1
End of powheg.input content
PDF package: lha
 Random number generator initialized with:            1             0             0
-->
<header>
<initrwgt>
<weightgroup name='scale_variation' combine='envelope' >
<weight id='1001' > lhapdf=306000 renscfact=1d0 facscfact=1d0 </weight>
<weight id='1002' > lhapdf=306000 renscfact=1d0 facscfact=2d0 </weight>
<weight id='1003' > lhapdf=306000 renscfact=1d0 facscfact=0.5d0 </weight>
<weight id='1004' > lhapdf=306000 renscfact=2d0 facscfact=1d0 </weight>
<weight id='1005' > lhapdf=306000 renscfact=2d0 facscfact=2d0 </weight>
<weight id='1006' > lhapdf=306000 renscfact=2d0 facscfact=0.5d0 </weight>
<weight id='1007' > lhapdf=306000 renscfact=0.5d0 facscfact=1d0 </weight>
<weight id='1008' > lhapdf=306000 renscfact=0.5d0 facscfact=2d0 </weight>
<weight id='1009' > lhapdf=306000 renscfact=0.5d0 facscfact=0.5d0 </weight>
</weightgroup>
<weightgroup name='PDF_variation1' combine='hessian' >
<weight id='2000' > lhapdf=306000 </weight>
<weight id='2001' > lhapdf=306001 </weight>
<weight id='2002' > lhapdf=306002 </weight>
<weight id='2003' > lhapdf=306003 </weight>
<weight id='2004' > lhapdf=306004 </weight>
<weight id='2005' > lhapdf=306005 </weight>
<weight id='2006' > lhapdf=306006 </weight>
<weight id='2007' > lhapdf=306007 </weight>
<weight id='2008' > lhapdf=306008 </weight>
<weight id='2009' > lhapdf=306009 </weight>
<weight id='2010' > lhapdf=306010 </weight>
<weight id='2011' > lhapdf=306011 </weight>
<weight id='2012' > lhapdf=306012 </weight>
<weight id='2013' > lhapdf=306013 </weight>
<weight id='2014' > lhapdf=306014 </weight>
<weight id='2015' > lhapdf=306015 </weight>
<weight id='2016' > lhapdf=306016 </weight>
<weight id='2017' > lhapdf=306017 </weight>
<weight id='2018' > lhapdf=306018 </weight>
<weight id='2019' > lhapdf=306019 </weight>
<weight id='2020' > lhapdf=306020 </weight>
<weight id='2021' > lhapdf=306021 </weight>
<weight id='2022' > lhapdf=306022 </weight>
<weight id='2023' > lhapdf=306023 </weight>
<weight id='2024' > lhapdf=306024 </weight>
<weight id='2025' > lhapdf=306025 </weight>
<weight id='2026' > lhapdf=306026 </weight>
<weight id='2027' > lhapdf=306027 </weight>
<weight id='2028' > lhapdf=306028 </weight>
<weight id='2029' > lhapdf=306029 </weight>
<weight id='2030' > lhapdf=306030 </weight>
<weight id='2031' > lhapdf=306031 </weight>
<weight id='2032' > lhapdf=306032 </weight>
<weight id='2033' > lhapdf=306033 </weight>
<weight id='2034' > lhapdf=306034 </weight>
<weight id='2035' > lhapdf=306035 </weight>
<weight id='2036' > lhapdf=306036 </weight>
<weight id='2037' > lhapdf=306037 </weight>
<weight id='2038' > lhapdf=306038 </weight>
<weight id='2039' > lhapdf=306039 </weight>
<weight id='2040' > lhapdf=306040 </weight>
<weight id='2041' > lhapdf=306041 </weight>
<weight id='2042' > lhapdf=306042 </weight>
<weight id='2043' > lhapdf=306043 </weight>
<weight id='2044' > lhapdf=306044 </weight>
<weight id='2045' > lhapdf=306045 </weight>
<weight id='2046' > lhapdf=306046 </weight>
<weight id='2047' > lhapdf=306047 </weight>
<weight id='2048' > lhapdf=306048 </weight>
<weight id='2049' > lhapdf=306049 </weight>
<weight id='2050' > lhapdf=306050 </weight>
<weight id='2051' > lhapdf=306051 </weight>
<weight id='2052' > lhapdf=306052 </weight>
<weight id='2053' > lhapdf=306053 </weight>
<weight id='2054' > lhapdf=306054 </weight>
<weight id='2055' > lhapdf=306055 </weight>
<weight id='2056' > lhapdf=306056 </weight>
<weight id='2057' > lhapdf=306057 </weight>
<weight id='2058' > lhapdf=306058 </weight>
<weight id='2059' > lhapdf=306059 </weight>
<weight id='2060' > lhapdf=306060 </weight>
<weight id='2061' > lhapdf=306061 </weight>
<weight id='2062' > lhapdf=306062 </weight>
<weight id='2063' > lhapdf=306063 </weight>
<weight id='2064' > lhapdf=306064 </weight>
<weight id='2065' > lhapdf=306065 </weight>
<weight id='2066' > lhapdf=306066 </weight>
<weight id='2067' > lhapdf=306067 </weight>
<weight id='2068' > lhapdf=306068 </weight>
<weight id='2069' > lhapdf=306069 </weight>
<weight id='2070' > lhapdf=306070 </weight>
<weight id='2071' > lhapdf=306071 </weight>
<weight id='2072' > lhapdf=306072 </weight>
<weight id='2073' > lhapdf=306073 </weight>
<weight id='2074' > lhapdf=306074 </weight>
<weight id='2075' > lhapdf=306075 </weight>
<weight id='2076' > lhapdf=306076 </weight>
<weight id='2077' > lhapdf=306077 </weight>
<weight id='2078' > lhapdf=306078 </weight>
<weight id='2079' > lhapdf=306079 </weight>
<weight id='2080' > lhapdf=306080 </weight>
<weight id='2081' > lhapdf=306081 </weight>
<weight id='2082' > lhapdf=306082 </weight>
<weight id='2083' > lhapdf=306083 </weight>
<weight id='2084' > lhapdf=306084 </weight>
<weight id='2085' > lhapdf=306085 </weight>
<weight id='2086' > lhapdf=306086 </weight>
<weight id='2087' > lhapdf=306087 </weight>
<weight id='2088' > lhapdf=306088 </weight>
<weight id='2089' > lhapdf=306089 </weight>
<weight id='2090' > lhapdf=306090 </weight>
<weight id='2091' > lhapdf=306091 </weight>
<weight id='2092' > lhapdf=306092 </weight>
<weight id='2093' > lhapdf=306093 </weight>
<weight id='2094' > lhapdf=306094 </weight>
<weight id='2095' > lhapdf=306095 </weight>
<weight id='2096' > lhapdf=306096 </weight>
<weight id='2097' > lhapdf=306097 </weight>
<weight id='2098' > lhapdf=306098 </weight>
<weight id='2099' > lhapdf=306099 </weight>
<weight id='2100' > lhapdf=306100 </weight>
<weight id='2101' > lhapdf=306101 </weight>
<weight id='2102' > lhapdf=306102 </weight>
<weight id='2104' > lhapdf=322500 </weight>
<weight id='2105' > lhapdf=322700 </weight>
<weight id='2106' > lhapdf=322900 </weight>
<weight id='2107' > lhapdf=323100 </weight>
<weight id='2108' > lhapdf=323300 </weight>
<weight id='2109' > lhapdf=323500 </weight>
<weight id='2110' > lhapdf=323700 </weight>
<weight id='2111' > lhapdf=323900 </weight>
<weight id='3000' > lhapdf=305800 </weight>
<weight id='3001' > lhapdf=305801 </weight>
<weight id='3002' > lhapdf=305802 </weight>
<weight id='3003' > lhapdf=305803 </weight>
<weight id='3004' > lhapdf=305804 </weight>
<weight id='3005' > lhapdf=305805 </weight>
<weight id='3006' > lhapdf=305806 </weight>
<weight id='3007' > lhapdf=305807 </weight>
<weight id='3008' > lhapdf=305808 </weight>
<weight id='3009' > lhapdf=305809 </weight>
<weight id='3010' > lhapdf=305810 </weight>
<weight id='3011' > lhapdf=305811 </weight>
<weight id='3012' > lhapdf=305812 </weight>
<weight id='3013' > lhapdf=305813 </weight>
<weight id='3014' > lhapdf=305814 </weight>
<weight id='3015' > lhapdf=305815 </weight>
<weight id='3016' > lhapdf=305816 </weight>
<weight id='3017' > lhapdf=305817 </weight>
<weight id='3018' > lhapdf=305818 </weight>
<weight id='3019' > lhapdf=305819 </weight>
<weight id='3020' > lhapdf=305820 </weight>
<weight id='3021' > lhapdf=305821 </weight>
<weight id='3022' > lhapdf=305822 </weight>
<weight id='3023' > lhapdf=305823 </weight>
<weight id='3024' > lhapdf=305824 </weight>
<weight id='3025' > lhapdf=305825 </weight>
<weight id='3026' > lhapdf=305826 </weight>
<weight id='3027' > lhapdf=305827 </weight>
<weight id='3028' > lhapdf=305828 </weight>
<weight id='3029' > lhapdf=305829 </weight>
<weight id='3030' > lhapdf=305830 </weight>
<weight id='3031' > lhapdf=305831 </weight>
<weight id='3032' > lhapdf=305832 </weight>
<weight id='3033' > lhapdf=305833 </weight>
<weight id='3034' > lhapdf=305834 </weight>
<weight id='3035' > lhapdf=305835 </weight>
<weight id='3036' > lhapdf=305836 </weight>
<weight id='3037' > lhapdf=305837 </weight>
<weight id='3038' > lhapdf=305838 </weight>
<weight id='3039' > lhapdf=305839 </weight>
<weight id='3040' > lhapdf=305840 </weight>
<weight id='3041' > lhapdf=305841 </weight>
<weight id='3042' > lhapdf=305842 </weight>
<weight id='3043' > lhapdf=305843 </weight>
<weight id='3044' > lhapdf=305844 </weight>
<weight id='3045' > lhapdf=305845 </weight>
<weight id='3046' > lhapdf=305846 </weight>
<weight id='3047' > lhapdf=305847 </weight>
<weight id='3048' > lhapdf=305848 </weight>
<weight id='3049' > lhapdf=305849 </weight>
<weight id='3050' > lhapdf=305850 </weight>
<weight id='3051' > lhapdf=305851 </weight>
<weight id='3052' > lhapdf=305852 </weight>
<weight id='3053' > lhapdf=305853 </weight>
<weight id='3054' > lhapdf=305854 </weight>
<weight id='3055' > lhapdf=305855 </weight>
<weight id='3056' > lhapdf=305856 </weight>
<weight id='3057' > lhapdf=305857 </weight>
<weight id='3058' > lhapdf=305858 </weight>
<weight id='3059' > lhapdf=305859 </weight>
<weight id='3060' > lhapdf=305860 </weight>
<weight id='3061' > lhapdf=305861 </weight>
<weight id='3062' > lhapdf=305862 </weight>
<weight id='3063' > lhapdf=305863 </weight>
<weight id='3064' > lhapdf=305864 </weight>
<weight id='3065' > lhapdf=305865 </weight>
<weight id='3066' > lhapdf=305866 </weight>
<weight id='3067' > lhapdf=305867 </weight>
<weight id='3068' > lhapdf=305868 </weight>
<weight id='3069' > lhapdf=305869 </weight>
<weight id='3070' > lhapdf=305870 </weight>
<weight id='3071' > lhapdf=305871 </weight>
<weight id='3072' > lhapdf=305872 </weight>
<weight id='3073' > lhapdf=305873 </weight>
<weight id='3074' > lhapdf=305874 </weight>
<weight id='3075' > lhapdf=305875 </weight>
<weight id='3076' > lhapdf=305876 </weight>
<weight id='3077' > lhapdf=305877 </weight>
<weight id='3078' > lhapdf=305878 </weight>
<weight id='3079' > lhapdf=305879 </weight>
<weight id='3080' > lhapdf=305880 </weight>
<weight id='3081' > lhapdf=305881 </weight>
<weight id='3082' > lhapdf=305882 </weight>
<weight id='3083' > lhapdf=305883 </weight>
<weight id='3084' > lhapdf=305884 </weight>
<weight id='3085' > lhapdf=305885 </weight>
<weight id='3086' > lhapdf=305886 </weight>
<weight id='3087' > lhapdf=305887 </weight>
<weight id='3088' > lhapdf=305888 </weight>
<weight id='3089' > lhapdf=305889 </weight>
<weight id='3090' > lhapdf=305890 </weight>
<weight id='3091' > lhapdf=305891 </weight>
<weight id='3092' > lhapdf=305892 </weight>
<weight id='3093' > lhapdf=305893 </weight>
<weight id='3094' > lhapdf=305894 </weight>
<weight id='3095' > lhapdf=305895 </weight>
<weight id='3096' > lhapdf=305896 </weight>
<weight id='3097' > lhapdf=305897 </weight>
<weight id='3098' > lhapdf=305898 </weight>
<weight id='3099' > lhapdf=305899 </weight>
<weight id='3100' > lhapdf=305900 </weight>
<weight id='3101' > lhapdf=305901 </weight>
<weight id='3102' > lhapdf=305902 </weight>
<weight id='5000' > lhapdf=13000 </weight>
<weight id='5001' > lhapdf=13001 </weight>
<weight id='5002' > lhapdf=13002 </weight>
<weight id='5003' > lhapdf=13003 </weight>
<weight id='5004' > lhapdf=13004 </weight>
<weight id='5005' > lhapdf=13005 </weight>
<weight id='5006' > lhapdf=13006 </weight>
<weight id='5007' > lhapdf=13007 </weight>
<weight id='5008' > lhapdf=13008 </weight>
<weight id='5009' > lhapdf=13009 </weight>
<weight id='5010' > lhapdf=13010 </weight>
<weight id='5011' > lhapdf=13011 </weight>
<weight id='5012' > lhapdf=13012 </weight>
<weight id='5013' > lhapdf=13013 </weight>
<weight id='5014' > lhapdf=13014 </weight>
<weight id='5015' > lhapdf=13015 </weight>
<weight id='5016' > lhapdf=13016 </weight>
<weight id='5017' > lhapdf=13017 </weight>
<weight id='5018' > lhapdf=13018 </weight>
<weight id='5019' > lhapdf=13019 </weight>
<weight id='5020' > lhapdf=13020 </weight>
<weight id='5021' > lhapdf=13021 </weight>
<weight id='5022' > lhapdf=13022 </weight>
<weight id='5023' > lhapdf=13023 </weight>
<weight id='5024' > lhapdf=13024 </weight>
<weight id='5025' > lhapdf=13025 </weight>
<weight id='5026' > lhapdf=13026 </weight>
<weight id='5027' > lhapdf=13027 </weight>
<weight id='5028' > lhapdf=13028 </weight>
<weight id='5029' > lhapdf=13029 </weight>
<weight id='5030' > lhapdf=13030 </weight>
<weight id='5031' > lhapdf=13031 </weight>
<weight id='5032' > lhapdf=13032 </weight>
<weight id='5033' > lhapdf=13033 </weight>
<weight id='5034' > lhapdf=13034 </weight>
<weight id='5035' > lhapdf=13035 </weight>
<weight id='5036' > lhapdf=13036 </weight>
<weight id='5037' > lhapdf=13037 </weight>
<weight id='5038' > lhapdf=13038 </weight>
<weight id='5039' > lhapdf=13039 </weight>
<weight id='5040' > lhapdf=13040 </weight>
<weight id='5041' > lhapdf=13041 </weight>
<weight id='5042' > lhapdf=13042 </weight>
<weight id='5043' > lhapdf=13043 </weight>
<weight id='5044' > lhapdf=13044 </weight>
<weight id='5045' > lhapdf=13045 </weight>
<weight id='5046' > lhapdf=13046 </weight>
<weight id='5047' > lhapdf=13047 </weight>
<weight id='5048' > lhapdf=13048 </weight>
<weight id='5049' > lhapdf=13049 </weight>
<weight id='5050' > lhapdf=13050 </weight>
<weight id='5051' > lhapdf=13051 </weight>
<weight id='5052' > lhapdf=13052 </weight>
<weight id='5053' > lhapdf=13053 </weight>
<weight id='5054' > lhapdf=13054 </weight>
<weight id='5055' > lhapdf=13055 </weight>
<weight id='5056' > lhapdf=13056 </weight>
<weight id='5060' > lhapdf=13065 </weight>
<weight id='5070' > lhapdf=13069 </weight>
<weight id='4000' > lhapdf=13100 </weight>
<weight id='4001' > lhapdf=13101 </weight>
<weight id='4002' > lhapdf=13102 </weight>
<weight id='4003' > lhapdf=13103 </weight>
<weight id='4004' > lhapdf=13104 </weight>
<weight id='4005' > lhapdf=13105 </weight>
<weight id='4006' > lhapdf=13106 </weight>
<weight id='4007' > lhapdf=13107 </weight>
<weight id='4008' > lhapdf=13108 </weight>
<weight id='4009' > lhapdf=13109 </weight>
<weight id='4010' > lhapdf=13110 </weight>
<weight id='4011' > lhapdf=13111 </weight>
<weight id='4012' > lhapdf=13112 </weight>
<weight id='4013' > lhapdf=13113 </weight>
<weight id='4014' > lhapdf=13114 </weight>
<weight id='4015' > lhapdf=13115 </weight>
<weight id='4016' > lhapdf=13116 </weight>
<weight id='4017' > lhapdf=13117 </weight>
<weight id='4018' > lhapdf=13118 </weight>
<weight id='4019' > lhapdf=13119 </weight>
<weight id='4020' > lhapdf=13120 </weight>
<weight id='4021' > lhapdf=13121 </weight>
<weight id='4022' > lhapdf=13122 </weight>
<weight id='4023' > lhapdf=13123 </weight>
<weight id='4024' > lhapdf=13124 </weight>
<weight id='4025' > lhapdf=13125 </weight>
<weight id='4026' > lhapdf=13126 </weight>
<weight id='4027' > lhapdf=13127 </weight>
<weight id='4028' > lhapdf=13128 </weight>
<weight id='4029' > lhapdf=13129 </weight>
<weight id='4030' > lhapdf=13130 </weight>
<weight id='4031' > lhapdf=13131 </weight>
<weight id='4032' > lhapdf=13132 </weight>
<weight id='4033' > lhapdf=13133 </weight>
<weight id='4034' > lhapdf=13134 </weight>
<weight id='4035' > lhapdf=13135 </weight>
<weight id='4036' > lhapdf=13136 </weight>
<weight id='4037' > lhapdf=13137 </weight>
<weight id='4038' > lhapdf=13138 </weight>
<weight id='4039' > lhapdf=13139 </weight>
<weight id='4040' > lhapdf=13140 </weight>
<weight id='4041' > lhapdf=13141 </weight>
<weight id='4042' > lhapdf=13142 </weight>
<weight id='4043' > lhapdf=13143 </weight>
<weight id='4044' > lhapdf=13144 </weight>
<weight id='4045' > lhapdf=13145 </weight>
<weight id='4046' > lhapdf=13146 </weight>
<weight id='4047' > lhapdf=13147 </weight>
<weight id='4048' > lhapdf=13148 </weight>
<weight id='4049' > lhapdf=13149 </weight>
<weight id='4050' > lhapdf=13150 </weight>
<weight id='4051' > lhapdf=13151 </weight>
<weight id='4052' > lhapdf=13152 </weight>
<weight id='4053' > lhapdf=13153 </weight>
<weight id='4054' > lhapdf=13154 </weight>
<weight id='4055' > lhapdf=13155 </weight>
<weight id='4056' > lhapdf=13156 </weight>
<weight id='4060' > lhapdf=13163 </weight>
<weight id='4070' > lhapdf=13167 </weight>
<weight id='4080' > lhapdf=13200 </weight>
<weight id='6000' > lhapdf=25200 </weight>
<weight id='6001' > lhapdf=25201 </weight>
<weight id='6002' > lhapdf=25202 </weight>
<weight id='6003' > lhapdf=25203 </weight>
<weight id='6004' > lhapdf=25204 </weight>
<weight id='6005' > lhapdf=25205 </weight>
<weight id='6006' > lhapdf=25206 </weight>
<weight id='6007' > lhapdf=25207 </weight>
<weight id='6008' > lhapdf=25208 </weight>
<weight id='6009' > lhapdf=25209 </weight>
<weight id='6010' > lhapdf=25210 </weight>
<weight id='6011' > lhapdf=25211 </weight>
<weight id='6012' > lhapdf=25212 </weight>
<weight id='6013' > lhapdf=25213 </weight>
<weight id='6014' > lhapdf=25214 </weight>
<weight id='6015' > lhapdf=25215 </weight>
<weight id='6016' > lhapdf=25216 </weight>
<weight id='6017' > lhapdf=25217 </weight>
<weight id='6018' > lhapdf=25218 </weight>
<weight id='6019' > lhapdf=25219 </weight>
<weight id='6020' > lhapdf=25220 </weight>
<weight id='6021' > lhapdf=25221 </weight>
<weight id='6022' > lhapdf=25222 </weight>
<weight id='6023' > lhapdf=25223 </weight>
<weight id='6024' > lhapdf=25224 </weight>
<weight id='6025' > lhapdf=25225 </weight>
<weight id='6026' > lhapdf=25226 </weight>
<weight id='6027' > lhapdf=25227 </weight>
<weight id='6028' > lhapdf=25228 </weight>
<weight id='6029' > lhapdf=25229 </weight>
<weight id='6030' > lhapdf=25230 </weight>
<weight id='6031' > lhapdf=25231 </weight>
<weight id='6032' > lhapdf=25232 </weight>
<weight id='6033' > lhapdf=25233 </weight>
<weight id='6034' > lhapdf=25234 </weight>
<weight id='6035' > lhapdf=25235 </weight>
<weight id='6036' > lhapdf=25236 </weight>
<weight id='6037' > lhapdf=25237 </weight>
<weight id='6038' > lhapdf=25238 </weight>
<weight id='6039' > lhapdf=25239 </weight>
<weight id='6040' > lhapdf=25240 </weight>
<weight id='6041' > lhapdf=25241 </weight>
<weight id='6042' > lhapdf=25242 </weight>
<weight id='6043' > lhapdf=25243 </weight>
<weight id='6044' > lhapdf=25244 </weight>
<weight id='6045' > lhapdf=25245 </weight>
<weight id='6046' > lhapdf=25246 </weight>
<weight id='6047' > lhapdf=25247 </weight>
<weight id='6048' > lhapdf=25248 </weight>
<weight id='6049' > lhapdf=25249 </weight>
<weight id='6050' > lhapdf=25250 </weight>
<weight id='7000' > lhapdf=25300 </weight>
<weight id='7001' > lhapdf=25301 </weight>
<weight id='7002' > lhapdf=25302 </weight>
<weight id='7003' > lhapdf=25303 </weight>
<weight id='7004' > lhapdf=25304 </weight>
<weight id='7005' > lhapdf=25305 </weight>
<weight id='7006' > lhapdf=25306 </weight>
<weight id='7007' > lhapdf=25307 </weight>
<weight id='7008' > lhapdf=25308 </weight>
<weight id='7009' > lhapdf=25309 </weight>
<weight id='7010' > lhapdf=25310 </weight>
<weight id='7011' > lhapdf=25311 </weight>
<weight id='7012' > lhapdf=25312 </weight>
<weight id='7013' > lhapdf=25313 </weight>
<weight id='7014' > lhapdf=25314 </weight>
<weight id='7015' > lhapdf=25315 </weight>
<weight id='7016' > lhapdf=25316 </weight>
<weight id='7017' > lhapdf=25317 </weight>
<weight id='7018' > lhapdf=25318 </weight>
<weight id='7019' > lhapdf=25319 </weight>
<weight id='7020' > lhapdf=25320 </weight>
<weight id='7021' > lhapdf=25321 </weight>
<weight id='7022' > lhapdf=25322 </weight>
<weight id='7023' > lhapdf=25323 </weight>
<weight id='7024' > lhapdf=25324 </weight>
<weight id='7025' > lhapdf=25325 </weight>
<weight id='7026' > lhapdf=25326 </weight>
<weight id='7027' > lhapdf=25327 </weight>
<weight id='7028' > lhapdf=25328 </weight>
<weight id='7029' > lhapdf=25329 </weight>
<weight id='7030' > lhapdf=25330 </weight>
<weight id='7031' > lhapdf=25331 </weight>
<weight id='7032' > lhapdf=25332 </weight>
<weight id='7033' > lhapdf=25333 </weight>
<weight id='7034' > lhapdf=25334 </weight>
<weight id='7035' > lhapdf=25335 </weight>
<weight id='7036' > lhapdf=25336 </weight>
<weight id='7037' > lhapdf=25337 </weight>
<weight id='7038' > lhapdf=25338 </weight>
<weight id='7039' > lhapdf=25339 </weight>
<weight id='7040' > lhapdf=25340 </weight>
<weight id='7041' > lhapdf=25341 </weight>
<weight id='7042' > lhapdf=25342 </weight>
<weight id='7043' > lhapdf=25343 </weight>
<weight id='7044' > lhapdf=25344 </weight>
<weight id='7045' > lhapdf=25345 </weight>
<weight id='7046' > lhapdf=25346 </weight>
<weight id='7047' > lhapdf=25347 </weight>
<weight id='7048' > lhapdf=25348 </weight>
<weight id='7049' > lhapdf=25349 </weight>
<weight id='7050' > lhapdf=25350 </weight>
<weight id='7060' > lhapdf=25000 </weight>
<weight id='8000' > lhapdf=42780 </weight>
<weight id='8001' > lhapdf=42781 </weight>
<weight id='8002' > lhapdf=42782 </weight>
<weight id='8003' > lhapdf=42783 </weight>
<weight id='8004' > lhapdf=42784 </weight>
<weight id='8005' > lhapdf=42785 </weight>
<weight id='8006' > lhapdf=42786 </weight>
<weight id='8007' > lhapdf=42787 </weight>
<weight id='8008' > lhapdf=42788 </weight>
<weight id='8009' > lhapdf=42789 </weight>
<weight id='8010' > lhapdf=42790 </weight>
<weight id='8011' > lhapdf=42791 </weight>
<weight id='8012' > lhapdf=42792 </weight>
<weight id='8013' > lhapdf=42793 </weight>
<weight id='8014' > lhapdf=42794 </weight>
<weight id='8015' > lhapdf=42795 </weight>
<weight id='8016' > lhapdf=42796 </weight>
<weight id='8017' > lhapdf=42797 </weight>
<weight id='8018' > lhapdf=42798 </weight>
<weight id='8019' > lhapdf=42799 </weight>
<weight id='8020' > lhapdf=42800 </weight>
<weight id='8021' > lhapdf=42801 </weight>
<weight id='8022' > lhapdf=42802 </weight>
<weight id='8023' > lhapdf=42803 </weight>
<weight id='8024' > lhapdf=42804 </weight>
<weight id='8025' > lhapdf=42805 </weight>
<weight id='8026' > lhapdf=42806 </weight>
<weight id='8027' > lhapdf=42807 </weight>
<weight id='8028' > lhapdf=42808 </weight>
<weight id='8029' > lhapdf=42809 </weight>
<weight id='8500' > lhapdf=90200 </weight>
<weight id='8501' > lhapdf=90201 </weight>
<weight id='8502' > lhapdf=90202 </weight>
<weight id='8503' > lhapdf=90203 </weight>
<weight id='8504' > lhapdf=90204 </weight>
<weight id='8505' > lhapdf=90205 </weight>
<weight id='8506' > lhapdf=90206 </weight>
<weight id='8507' > lhapdf=90207 </weight>
<weight id='8508' > lhapdf=90208 </weight>
<weight id='8509' > lhapdf=90209 </weight>
<weight id='8510' > lhapdf=90210 </weight>
<weight id='8511' > lhapdf=90211 </weight>
<weight id='8512' > lhapdf=90212 </weight>
<weight id='8513' > lhapdf=90213 </weight>
<weight id='8514' > lhapdf=90214 </weight>
<weight id='8515' > lhapdf=90215 </weight>
<weight id='8516' > lhapdf=90216 </weight>
<weight id='8517' > lhapdf=90217 </weight>
<weight id='8518' > lhapdf=90218 </weight>
<weight id='8519' > lhapdf=90219 </weight>
<weight id='8520' > lhapdf=90220 </weight>
<weight id='8521' > lhapdf=90221 </weight>
<weight id='8522' > lhapdf=90222 </weight>
<weight id='8523' > lhapdf=90223 </weight>
<weight id='8524' > lhapdf=90224 </weight>
<weight id='8525' > lhapdf=90225 </weight>
<weight id='8526' > lhapdf=90226 </weight>
<weight id='8527' > lhapdf=90227 </weight>
<weight id='8528' > lhapdf=90228 </weight>
<weight id='8529' > lhapdf=90229 </weight>
<weight id='8530' > lhapdf=90230 </weight>
<weight id='8531' > lhapdf=90231 </weight>
<weight id='8532' > lhapdf=90232 </weight>
<weight id='8533' > lhapdf=90233 </weight>
<weight id='8534' > lhapdf=90234 </weight>
<weight id='8535' > lhapdf=90235 </weight>
<weight id='8536' > lhapdf=90236 </weight>
<weight id='8537' > lhapdf=90237 </weight>
<weight id='8538' > lhapdf=90238 </weight>
<weight id='8539' > lhapdf=90239 </weight>
<weight id='8540' > lhapdf=90240 </weight>
<weight id='8541' > lhapdf=90241 </weight>
<weight id='8542' > lhapdf=90242 </weight>
<weight id='8543' > lhapdf=90243 </weight>
<weight id='8544' > lhapdf=90244 </weight>
<weight id='8545' > lhapdf=90245 </weight>
<weight id='8546' > lhapdf=90246 </weight>
<weight id='8547' > lhapdf=90247 </weight>
<weight id='8548' > lhapdf=90248 </weight>
<weight id='8549' > lhapdf=90249 </weight>
<weight id='8550' > lhapdf=90250 </weight>
<weight id='8551' > lhapdf=90251 </weight>
<weight id='8552' > lhapdf=90252 </weight>
<weight id='8553' > lhapdf=90253 </weight>
<weight id='8554' > lhapdf=90254 </weight>
<weight id='8555' > lhapdf=90255 </weight>
<weight id='8556' > lhapdf=90256 </weight>
<weight id='8557' > lhapdf=90257 </weight>
<weight id='8558' > lhapdf=90258 </weight>
<weight id='8559' > lhapdf=90259 </weight>
<weight id='8560' > lhapdf=90260 </weight>
<weight id='8561' > lhapdf=90261 </weight>
<weight id='8562' > lhapdf=90262 </weight>
<weight id='8563' > lhapdf=90263 </weight>
<weight id='8564' > lhapdf=90264 </weight>
<weight id='8565' > lhapdf=90265 </weight>
<weight id='8566' > lhapdf=90266 </weight>
<weight id='8567' > lhapdf=90267 </weight>
<weight id='8568' > lhapdf=90268 </weight>
<weight id='8569' > lhapdf=90269 </weight>
<weight id='8570' > lhapdf=90270 </weight>
<weight id='8571' > lhapdf=90271 </weight>
<weight id='8572' > lhapdf=90272 </weight>
<weight id='8573' > lhapdf=90273 </weight>
<weight id='8574' > lhapdf=90274 </weight>
<weight id='8575' > lhapdf=90275 </weight>
<weight id='8576' > lhapdf=90276 </weight>
<weight id='8577' > lhapdf=90277 </weight>
<weight id='8578' > lhapdf=90278 </weight>
<weight id='8579' > lhapdf=90279 </weight>
<weight id='8580' > lhapdf=90280 </weight>
<weight id='8581' > lhapdf=90281 </weight>
<weight id='8582' > lhapdf=90282 </weight>
<weight id='8583' > lhapdf=90283 </weight>
<weight id='8584' > lhapdf=90284 </weight>
<weight id='8585' > lhapdf=90285 </weight>
<weight id='8586' > lhapdf=90286 </weight>
<weight id='8587' > lhapdf=90287 </weight>
<weight id='8588' > lhapdf=90288 </weight>
<weight id='8589' > lhapdf=90289 </weight>
<weight id='8590' > lhapdf=90290 </weight>
<weight id='8591' > lhapdf=90291 </weight>
<weight id='8592' > lhapdf=90292 </weight>
<weight id='8593' > lhapdf=90293 </weight>
<weight id='8594' > lhapdf=90294 </weight>
<weight id='8595' > lhapdf=90295 </weight>
<weight id='8596' > lhapdf=90296 </weight>
<weight id='8597' > lhapdf=90297 </weight>
<weight id='8598' > lhapdf=90298 </weight>
<weight id='8599' > lhapdf=90299 </weight>
<weight id='8600' > lhapdf=90300 </weight>
<weight id='8601' > lhapdf=90301 </weight>
<weight id='8602' > lhapdf=90302 </weight>
<weight id='9000' > lhapdf=91200 </weight>
<weight id='9001' > lhapdf=91201 </weight>
<weight id='9002' > lhapdf=91202 </weight>
<weight id='9003' > lhapdf=91203 </weight>
<weight id='9004' > lhapdf=91204 </weight>
<weight id='9005' > lhapdf=91205 </weight>
<weight id='9006' > lhapdf=91206 </weight>
<weight id='9007' > lhapdf=91207 </weight>
<weight id='9008' > lhapdf=91208 </weight>
<weight id='9009' > lhapdf=91209 </weight>
<weight id='9010' > lhapdf=91210 </weight>
<weight id='9011' > lhapdf=91211 </weight>
<weight id='9012' > lhapdf=91212 </weight>
<weight id='9013' > lhapdf=91213 </weight>
<weight id='9014' > lhapdf=91214 </weight>
<weight id='9015' > lhapdf=91215 </weight>
<weight id='9016' > lhapdf=91216 </weight>
<weight id='9017' > lhapdf=91217 </weight>
<weight id='9018' > lhapdf=91218 </weight>
<weight id='9019' > lhapdf=91219 </weight>
<weight id='9020' > lhapdf=91220 </weight>
<weight id='9021' > lhapdf=91221 </weight>
<weight id='9022' > lhapdf=91222 </weight>
<weight id='9023' > lhapdf=91223 </weight>
<weight id='9024' > lhapdf=91224 </weight>
<weight id='9025' > lhapdf=91225 </weight>
<weight id='9026' > lhapdf=91226 </weight>
<weight id='9027' > lhapdf=91227 </weight>
<weight id='9028' > lhapdf=91228 </weight>
<weight id='9029' > lhapdf=91229 </weight>
<weight id='9030' > lhapdf=91230 </weight>
<weight id='9031' > lhapdf=91231 </weight>
<weight id='9032' > lhapdf=91232 </weight>
<weight id='9033' > lhapdf=91233 </weight>
<weight id='9034' > lhapdf=91234 </weight>
<weight id='9035' > lhapdf=91235 </weight>
<weight id='9036' > lhapdf=91236 </weight>
<weight id='9037' > lhapdf=91237 </weight>
<weight id='9038' > lhapdf=91238 </weight>
<weight id='9039' > lhapdf=91239 </weight>
<weight id='9040' > lhapdf=91240 </weight>
<weight id='9041' > lhapdf=91241 </weight>
<weight id='9042' > lhapdf=91242 </weight>
<weight id='9043' > lhapdf=91243 </weight>
<weight id='9044' > lhapdf=91244 </weight>
<weight id='9045' > lhapdf=91245 </weight>
<weight id='9046' > lhapdf=91246 </weight>
<weight id='9047' > lhapdf=91247 </weight>
<weight id='9048' > lhapdf=91248 </weight>
<weight id='9049' > lhapdf=91249 </weight>
<weight id='9050' > lhapdf=91250 </weight>
<weight id='9051' > lhapdf=91251 </weight>
<weight id='9052' > lhapdf=91252 </weight>
<weight id='9053' > lhapdf=91253 </weight>
<weight id='9054' > lhapdf=91254 </weight>
<weight id='9055' > lhapdf=91255 </weight>
<weight id='9056' > lhapdf=91256 </weight>
<weight id='9057' > lhapdf=91257 </weight>
<weight id='9058' > lhapdf=91258 </weight>
<weight id='9059' > lhapdf=91259 </weight>
<weight id='9060' > lhapdf=91260 </weight>
<weight id='9061' > lhapdf=91261 </weight>
<weight id='9062' > lhapdf=91262 </weight>
<weight id='9063' > lhapdf=91263 </weight>
<weight id='9064' > lhapdf=91264 </weight>
<weight id='9065' > lhapdf=91265 </weight>
<weight id='9066' > lhapdf=91266 </weight>
<weight id='9067' > lhapdf=91267 </weight>
<weight id='9068' > lhapdf=91268 </weight>
<weight id='9069' > lhapdf=91269 </weight>
<weight id='9070' > lhapdf=91270 </weight>
<weight id='9071' > lhapdf=91271 </weight>
<weight id='9072' > lhapdf=91272 </weight>
<weight id='9073' > lhapdf=91273 </weight>
<weight id='9074' > lhapdf=91274 </weight>
<weight id='9075' > lhapdf=91275 </weight>
<weight id='9076' > lhapdf=91276 </weight>
<weight id='9077' > lhapdf=91277 </weight>
<weight id='9078' > lhapdf=91278 </weight>
<weight id='9079' > lhapdf=91279 </weight>
<weight id='9080' > lhapdf=91280 </weight>
<weight id='9081' > lhapdf=91281 </weight>
<weight id='9082' > lhapdf=91282 </weight>
<weight id='9083' > lhapdf=91283 </weight>
<weight id='9084' > lhapdf=91284 </weight>
<weight id='9085' > lhapdf=91285 </weight>
<weight id='9086' > lhapdf=91286 </weight>
<weight id='9087' > lhapdf=91287 </weight>
<weight id='9088' > lhapdf=91288 </weight>
<weight id='9089' > lhapdf=91289 </weight>
<weight id='9090' > lhapdf=91290 </weight>
<weight id='9091' > lhapdf=91291 </weight>
<weight id='9092' > lhapdf=91292 </weight>
<weight id='9093' > lhapdf=91293 </weight>
<weight id='9094' > lhapdf=91294 </weight>
<weight id='9095' > lhapdf=91295 </weight>
<weight id='9096' > lhapdf=91296 </weight>
<weight id='9097' > lhapdf=91297 </weight>
<weight id='9098' > lhapdf=91298 </weight>
<weight id='9099' > lhapdf=91299 </weight>
<weight id='9100' > lhapdf=91300 </weight>
<weight id='9101' > lhapdf=91301 </weight>
<weight id='9102' > lhapdf=91302 </weight>
<weight id='10000' > lhapdf=90400 </weight>
<weight id='10001' > lhapdf=90401 </weight>
<weight id='10002' > lhapdf=90402 </weight>
<weight id='10003' > lhapdf=90403 </weight>
<weight id='10004' > lhapdf=90404 </weight>
<weight id='10005' > lhapdf=90405 </weight>
<weight id='10006' > lhapdf=90406 </weight>
<weight id='10007' > lhapdf=90407 </weight>
<weight id='10008' > lhapdf=90408 </weight>
<weight id='10009' > lhapdf=90409 </weight>
<weight id='10010' > lhapdf=90410 </weight>
<weight id='10011' > lhapdf=90411 </weight>
<weight id='10012' > lhapdf=90412 </weight>
<weight id='10013' > lhapdf=90413 </weight>
<weight id='10014' > lhapdf=90414 </weight>
<weight id='10015' > lhapdf=90415 </weight>
<weight id='10016' > lhapdf=90416 </weight>
<weight id='10017' > lhapdf=90417 </weight>
<weight id='10018' > lhapdf=90418 </weight>
<weight id='10019' > lhapdf=90419 </weight>
<weight id='10020' > lhapdf=90420 </weight>
<weight id='10021' > lhapdf=90421 </weight>
<weight id='10022' > lhapdf=90422 </weight>
<weight id='10023' > lhapdf=90423 </weight>
<weight id='10024' > lhapdf=90424 </weight>
<weight id='10025' > lhapdf=90425 </weight>
<weight id='10026' > lhapdf=90426 </weight>
<weight id='10027' > lhapdf=90427 </weight>
<weight id='10028' > lhapdf=90428 </weight>
<weight id='10029' > lhapdf=90429 </weight>
<weight id='10030' > lhapdf=90430 </weight>
<weight id='10031' > lhapdf=90431 </weight>
<weight id='10032' > lhapdf=90432 </weight>
<weight id='11000' > lhapdf=91400 </weight>
<weight id='11001' > lhapdf=91401 </weight>
<weight id='11002' > lhapdf=91402 </weight>
<weight id='11003' > lhapdf=91403 </weight>
<weight id='11004' > lhapdf=91404 </weight>
<weight id='11005' > lhapdf=91405 </weight>
<weight id='11006' > lhapdf=91406 </weight>
<weight id='11007' > lhapdf=91407 </weight>
<weight id='11008' > lhapdf=91408 </weight>
<weight id='11009' > lhapdf=91409 </weight>
<weight id='11010' > lhapdf=91410 </weight>
<weight id='11011' > lhapdf=91411 </weight>
<weight id='11012' > lhapdf=91412 </weight>
<weight id='11013' > lhapdf=91413 </weight>
<weight id='11014' > lhapdf=91414 </weight>
<weight id='11015' > lhapdf=91415 </weight>
<weight id='11016' > lhapdf=91416 </weight>
<weight id='11017' > lhapdf=91417 </weight>
<weight id='11018' > lhapdf=91418 </weight>
<weight id='11019' > lhapdf=91419 </weight>
<weight id='11020' > lhapdf=91420 </weight>
<weight id='11021' > lhapdf=91421 </weight>
<weight id='11022' > lhapdf=91422 </weight>
<weight id='11023' > lhapdf=91423 </weight>
<weight id='11024' > lhapdf=91424 </weight>
<weight id='11025' > lhapdf=91425 </weight>
<weight id='11026' > lhapdf=91426 </weight>
<weight id='11027' > lhapdf=91427 </weight>
<weight id='11028' > lhapdf=91428 </weight>
<weight id='11029' > lhapdf=91429 </weight>
<weight id='11030' > lhapdf=91430 </weight>
<weight id='11031' > lhapdf=91431 </weight>
<weight id='11032' > lhapdf=91432 </weight>
<weight id='12000' > lhapdf=61100 </weight>
<weight id='12001' > lhapdf=61101 </weight>
<weight id='12002' > lhapdf=61102 </weight>
<weight id='12003' > lhapdf=61103 </weight>
<weight id='12004' > lhapdf=61104 </weight>
<weight id='12005' > lhapdf=61105 </weight>
<weight id='12006' > lhapdf=61106 </weight>
<weight id='12007' > lhapdf=61107 </weight>
<weight id='12008' > lhapdf=61108 </weight>
<weight id='12009' > lhapdf=61109 </weight>
<weight id='12010' > lhapdf=61110 </weight>
<weight id='12011' > lhapdf=61111 </weight>
<weight id='12012' > lhapdf=61112 </weight>
<weight id='12013' > lhapdf=61113 </weight>
<weight id='12014' > lhapdf=61114 </weight>
<weight id='12015' > lhapdf=61115 </weight>
<weight id='12016' > lhapdf=61116 </weight>
<weight id='12017' > lhapdf=61117 </weight>
<weight id='12018' > lhapdf=61118 </weight>
<weight id='12019' > lhapdf=61119 </weight>
<weight id='12020' > lhapdf=61120 </weight>
<weight id='12021' > lhapdf=61121 </weight>
<weight id='12022' > lhapdf=61122 </weight>
<weight id='12023' > lhapdf=61123 </weight>
<weight id='12024' > lhapdf=61124 </weight>
<weight id='12025' > lhapdf=61125 </weight>
<weight id='12026' > lhapdf=61126 </weight>
<weight id='12027' > lhapdf=61127 </weight>
<weight id='12028' > lhapdf=61128 </weight>
<weight id='12050' > lhapdf=61130 </weight>
<weight id='12051' > lhapdf=61131 </weight>
<weight id='12052' > lhapdf=61132 </weight>
<weight id='12053' > lhapdf=61133 </weight>
<weight id='12054' > lhapdf=61134 </weight>
<weight id='12055' > lhapdf=61135 </weight>
<weight id='12056' > lhapdf=61136 </weight>
<weight id='12057' > lhapdf=61137 </weight>
<weight id='12058' > lhapdf=61138 </weight>
<weight id='12059' > lhapdf=61139 </weight>
<weight id='12060' > lhapdf=61140 </weight>
<weight id='12061' > lhapdf=61141 </weight>
<weight id='12062' > lhapdf=61142 </weight>
<weight id='12063' > lhapdf=61143 </weight>
<weight id='13000' > lhapdf=61200 </weight>
<weight id='13001' > lhapdf=61201 </weight>
<weight id='13002' > lhapdf=61202 </weight>
<weight id='13003' > lhapdf=61203 </weight>
<weight id='13004' > lhapdf=61204 </weight>
<weight id='13005' > lhapdf=61205 </weight>
<weight id='13006' > lhapdf=61206 </weight>
<weight id='13007' > lhapdf=61207 </weight>
<weight id='13008' > lhapdf=61208 </weight>
<weight id='13009' > lhapdf=61209 </weight>
<weight id='13010' > lhapdf=61210 </weight>
<weight id='13011' > lhapdf=61211 </weight>
<weight id='13012' > lhapdf=61212 </weight>
<weight id='13013' > lhapdf=61213 </weight>
<weight id='13014' > lhapdf=61214 </weight>
<weight id='13015' > lhapdf=61215 </weight>
<weight id='13016' > lhapdf=61216 </weight>
<weight id='13017' > lhapdf=61217 </weight>
<weight id='13018' > lhapdf=61218 </weight>
<weight id='13019' > lhapdf=61219 </weight>
<weight id='13020' > lhapdf=61220 </weight>
<weight id='13021' > lhapdf=61221 </weight>
<weight id='13022' > lhapdf=61222 </weight>
<weight id='13023' > lhapdf=61223 </weight>
<weight id='13024' > lhapdf=61224 </weight>
<weight id='13025' > lhapdf=61225 </weight>
<weight id='13026' > lhapdf=61226 </weight>
<weight id='13027' > lhapdf=61227 </weight>
<weight id='13028' > lhapdf=61228 </weight>
<weight id='13050' > lhapdf=61230 </weight>
<weight id='13051' > lhapdf=61231 </weight>
<weight id='13052' > lhapdf=61232 </weight>
<weight id='13053' > lhapdf=61233 </weight>
<weight id='13054' > lhapdf=61234 </weight>
<weight id='13055' > lhapdf=61235 </weight>
<weight id='13056' > lhapdf=61236 </weight>
<weight id='13057' > lhapdf=61237 </weight>
<weight id='13058' > lhapdf=61238 </weight>
<weight id='13059' > lhapdf=61239 </weight>
<weight id='13060' > lhapdf=61240 </weight>
<weight id='13061' > lhapdf=61241 </weight>
<weight id='13062' > lhapdf=61242 </weight>
<weight id='13063' > lhapdf=61243 </weight>
<weight id='14000' > lhapdf=13400 </weight>
<weight id='14001' > lhapdf=13401 </weight>
<weight id='14002' > lhapdf=13402 </weight>
<weight id='14003' > lhapdf=13403 </weight>
<weight id='14004' > lhapdf=13404 </weight>
<weight id='14005' > lhapdf=13405 </weight>
<weight id='14006' > lhapdf=13406 </weight>
<weight id='14007' > lhapdf=13407 </weight>
<weight id='14008' > lhapdf=13408 </weight>
<weight id='14009' > lhapdf=13409 </weight>
<weight id='14010' > lhapdf=13410 </weight>
<weight id='14011' > lhapdf=13411 </weight>
<weight id='14012' > lhapdf=13412 </weight>
<weight id='14013' > lhapdf=13413 </weight>
<weight id='14014' > lhapdf=13414 </weight>
<weight id='14015' > lhapdf=13415 </weight>
<weight id='14016' > lhapdf=13416 </weight>
<weight id='14017' > lhapdf=13417 </weight>
<weight id='14018' > lhapdf=13418 </weight>
<weight id='14019' > lhapdf=13419 </weight>
<weight id='14020' > lhapdf=13420 </weight>
<weight id='14021' > lhapdf=13421 </weight>
<weight id='14022' > lhapdf=13422 </weight>
<weight id='14023' > lhapdf=13423 </weight>
<weight id='14024' > lhapdf=13424 </weight>
<weight id='14025' > lhapdf=13425 </weight>
<weight id='14026' > lhapdf=13426 </weight>
<weight id='14027' > lhapdf=13427 </weight>
<weight id='14028' > lhapdf=13428 </weight>
<weight id='14029' > lhapdf=13429 </weight>
<weight id='14030' > lhapdf=13430 </weight>
<weight id='15000' > lhapdf=82200 </weight>
<weight id='15001' > lhapdf=82201 </weight>
<weight id='15002' > lhapdf=82202 </weight>
<weight id='15003' > lhapdf=82203 </weight>
<weight id='15004' > lhapdf=82204 </weight>
<weight id='15005' > lhapdf=82205 </weight>
<weight id='15006' > lhapdf=82206 </weight>
<weight id='15007' > lhapdf=82207 </weight>
<weight id='15008' > lhapdf=82208 </weight>
<weight id='15009' > lhapdf=82209 </weight>
<weight id='15010' > lhapdf=82210 </weight>
<weight id='15011' > lhapdf=82211 </weight>
<weight id='15012' > lhapdf=82212 </weight>
<weight id='15013' > lhapdf=82213 </weight>
<weight id='15014' > lhapdf=82214 </weight>
<weight id='15015' > lhapdf=82215 </weight>
<weight id='15016' > lhapdf=82216 </weight>
<weight id='15017' > lhapdf=82217 </weight>
<weight id='15018' > lhapdf=82218 </weight>
<weight id='15019' > lhapdf=82219 </weight>
<weight id='15020' > lhapdf=82220 </weight>
<weight id='15021' > lhapdf=82221 </weight>
<weight id='15022' > lhapdf=82222 </weight>
<weight id='15023' > lhapdf=82223 </weight>
<weight id='15024' > lhapdf=82224 </weight>
<weight id='15025' > lhapdf=82225 </weight>
<weight id='15026' > lhapdf=82226 </weight>
<weight id='15027' > lhapdf=82227 </weight>
<weight id='15028' > lhapdf=82228 </weight>
<weight id='15029' > lhapdf=82229 </weight>
<weight id='15030' > lhapdf=82230 </weight>
<weight id='15031' > lhapdf=82231 </weight>
<weight id='15032' > lhapdf=82232 </weight>
<weight id='15033' > lhapdf=82233 </weight>
<weight id='15034' > lhapdf=82234 </weight>
<weight id='15035' > lhapdf=82235 </weight>
<weight id='15036' > lhapdf=82236 </weight>
<weight id='15037' > lhapdf=82237 </weight>
<weight id='15038' > lhapdf=82238 </weight>
<weight id='15039' > lhapdf=82239 </weight>
<weight id='15040' > lhapdf=82240 </weight>
<weight id='15041' > lhapdf=82241 </weight>
<weight id='15042' > lhapdf=82242 </weight>
<weight id='15043' > lhapdf=82243 </weight>
<weight id='15044' > lhapdf=82244 </weight>
<weight id='15045' > lhapdf=82245 </weight>
<weight id='15046' > lhapdf=82246 </weight>
<weight id='15047' > lhapdf=82247 </weight>
<weight id='15048' > lhapdf=82248 </weight>
<weight id='15049' > lhapdf=82249 </weight>
<weight id='15050' > lhapdf=82250 </weight>
<weight id='15051' > lhapdf=82251 </weight>
<weight id='15052' > lhapdf=82252 </weight>
<weight id='15053' > lhapdf=82253 </weight>
<weight id='15054' > lhapdf=82254 </weight>
<weight id='15055' > lhapdf=82255 </weight>
<weight id='15056' > lhapdf=82256 </weight>
<weight id='15057' > lhapdf=82257 </weight>
<weight id='15058' > lhapdf=82258 </weight>
<weight id='15059' > lhapdf=82259 </weight>
<weight id='15060' > lhapdf=82260 </weight>
<weight id='15061' > lhapdf=82261 </weight>
<weight id='15062' > lhapdf=82262 </weight>
<weight id='15063' > lhapdf=82263 </weight>
<weight id='15064' > lhapdf=82264 </weight>
<weight id='15065' > lhapdf=82265 </weight>
<weight id='15066' > lhapdf=82266 </weight>
<weight id='15067' > lhapdf=82267 </weight>
<weight id='15068' > lhapdf=82268 </weight>
<weight id='15069' > lhapdf=82269 </weight>
<weight id='15070' > lhapdf=82270 </weight>
<weight id='15071' > lhapdf=82271 </weight>
<weight id='15072' > lhapdf=82272 </weight>
<weight id='15073' > lhapdf=82273 </weight>
<weight id='15074' > lhapdf=82274 </weight>
<weight id='15075' > lhapdf=82275 </weight>
<weight id='15076' > lhapdf=82276 </weight>
<weight id='15077' > lhapdf=82277 </weight>
<weight id='15078' > lhapdf=82278 </weight>
<weight id='15079' > lhapdf=82279 </weight>
<weight id='15080' > lhapdf=82280 </weight>
<weight id='15081' > lhapdf=82281 </weight>
<weight id='15082' > lhapdf=82282 </weight>
<weight id='15083' > lhapdf=82283 </weight>
<weight id='15084' > lhapdf=82284 </weight>
<weight id='15085' > lhapdf=82285 </weight>
<weight id='15086' > lhapdf=82286 </weight>
<weight id='15087' > lhapdf=82287 </weight>
<weight id='15088' > lhapdf=82288 </weight>
<weight id='15089' > lhapdf=82289 </weight>
<weight id='15090' > lhapdf=82290 </weight>
<weight id='15091' > lhapdf=82291 </weight>
<weight id='15092' > lhapdf=82292 </weight>
<weight id='15093' > lhapdf=82293 </weight>
<weight id='15094' > lhapdf=82294 </weight>
<weight id='15095' > lhapdf=82295 </weight>
<weight id='15096' > lhapdf=82296 </weight>
<weight id='15097' > lhapdf=82297 </weight>
<weight id='15098' > lhapdf=82298 </weight>
<weight id='15099' > lhapdf=82299 </weight>
<weight id='15100' > lhapdf=82300 </weight>
<weight id='15101' > lhapdf=82301 </weight>
<weight id='15102' > lhapdf=82302 </weight>
<weight id='15103' > lhapdf=82303 </weight>
<weight id='15104' > lhapdf=82304 </weight>
<weight id='15105' > lhapdf=82305 </weight>
<weight id='15106' > lhapdf=82306 </weight>
<weight id='15107' > lhapdf=82307 </weight>
</weightgroup>
<weightgroup name='PDF_variation2' combine='replica' >
<weight id='1500' > lhapdf=292200 </weight>
<weight id='1501' > lhapdf=292201 </weight>
<weight id='1502' > lhapdf=292202 </weight>
<weight id='1503' > lhapdf=292203 </weight>
<weight id='1504' > lhapdf=292204 </weight>
<weight id='1505' > lhapdf=292205 </weight>
<weight id='1506' > lhapdf=292206 </weight>
<weight id='1507' > lhapdf=292207 </weight>
<weight id='1508' > lhapdf=292208 </weight>
<weight id='1509' > lhapdf=292209 </weight>
<weight id='1510' > lhapdf=292210 </weight>
<weight id='1511' > lhapdf=292211 </weight>
<weight id='1512' > lhapdf=292212 </weight>
<weight id='1513' > lhapdf=292213 </weight>
<weight id='1514' > lhapdf=292214 </weight>
<weight id='1515' > lhapdf=292215 </weight>
<weight id='1516' > lhapdf=292216 </weight>
<weight id='1517' > lhapdf=292217 </weight>
<weight id='1518' > lhapdf=292218 </weight>
<weight id='1519' > lhapdf=292219 </weight>
<weight id='1520' > lhapdf=292220 </weight>
<weight id='1521' > lhapdf=292221 </weight>
<weight id='1522' > lhapdf=292222 </weight>
<weight id='1523' > lhapdf=292223 </weight>
<weight id='1524' > lhapdf=292224 </weight>
<weight id='1525' > lhapdf=292225 </weight>
<weight id='1526' > lhapdf=292226 </weight>
<weight id='1527' > lhapdf=292227 </weight>
<weight id='1528' > lhapdf=292228 </weight>
<weight id='1529' > lhapdf=292229 </weight>
<weight id='1530' > lhapdf=292230 </weight>
<weight id='1531' > lhapdf=292231 </weight>
<weight id='1532' > lhapdf=292232 </weight>
<weight id='1533' > lhapdf=292233 </weight>
<weight id='1534' > lhapdf=292234 </weight>
<weight id='1535' > lhapdf=292235 </weight>
<weight id='1536' > lhapdf=292236 </weight>
<weight id='1537' > lhapdf=292237 </weight>
<weight id='1538' > lhapdf=292238 </weight>
<weight id='1539' > lhapdf=292239 </weight>
<weight id='1540' > lhapdf=292240 </weight>
<weight id='1541' > lhapdf=292241 </weight>
<weight id='1542' > lhapdf=292242 </weight>
<weight id='1543' > lhapdf=292243 </weight>
<weight id='1544' > lhapdf=292244 </weight>
<weight id='1545' > lhapdf=292245 </weight>
<weight id='1546' > lhapdf=292246 </weight>
<weight id='1547' > lhapdf=292247 </weight>
<weight id='1548' > lhapdf=292248 </weight>
<weight id='1549' > lhapdf=292249 </weight>
<weight id='1550' > lhapdf=292250 </weight>
<weight id='1551' > lhapdf=292251 </weight>
<weight id='1552' > lhapdf=292252 </weight>
<weight id='1553' > lhapdf=292253 </weight>
<weight id='1554' > lhapdf=292254 </weight>
<weight id='1555' > lhapdf=292255 </weight>
<weight id='1556' > lhapdf=292256 </weight>
<weight id='1557' > lhapdf=292257 </weight>
<weight id='1558' > lhapdf=292258 </weight>
<weight id='1559' > lhapdf=292259 </weight>
<weight id='1560' > lhapdf=292260 </weight>
<weight id='1561' > lhapdf=292261 </weight>
<weight id='1562' > lhapdf=292262 </weight>
<weight id='1563' > lhapdf=292263 </weight>
<weight id='1564' > lhapdf=292264 </weight>
<weight id='1565' > lhapdf=292265 </weight>
<weight id='1566' > lhapdf=292266 </weight>
<weight id='1567' > lhapdf=292267 </weight>
<weight id='1568' > lhapdf=292268 </weight>
<weight id='1569' > lhapdf=292269 </weight>
<weight id='1570' > lhapdf=292270 </weight>
<weight id='1571' > lhapdf=292271 </weight>
<weight id='1572' > lhapdf=292272 </weight>
<weight id='1573' > lhapdf=292273 </weight>
<weight id='1574' > lhapdf=292274 </weight>
<weight id='1575' > lhapdf=292275 </weight>
<weight id='1576' > lhapdf=292276 </weight>
<weight id='1577' > lhapdf=292277 </weight>
<weight id='1578' > lhapdf=292278 </weight>
<weight id='1579' > lhapdf=292279 </weight>
<weight id='1580' > lhapdf=292280 </weight>
<weight id='1581' > lhapdf=292281 </weight>
<weight id='1582' > lhapdf=292282 </weight>
<weight id='1583' > lhapdf=292283 </weight>
<weight id='1584' > lhapdf=292284 </weight>
<weight id='1585' > lhapdf=292285 </weight>
<weight id='1586' > lhapdf=292286 </weight>
<weight id='1587' > lhapdf=292287 </weight>
<weight id='1588' > lhapdf=292288 </weight>
<weight id='1589' > lhapdf=292289 </weight>
<weight id='1590' > lhapdf=292290 </weight>
<weight id='1591' > lhapdf=292291 </weight>
<weight id='1592' > lhapdf=292292 </weight>
<weight id='1593' > lhapdf=292293 </weight>
<weight id='1594' > lhapdf=292294 </weight>
<weight id='1595' > lhapdf=292295 </weight>
<weight id='1596' > lhapdf=292296 </weight>
<weight id='1597' > lhapdf=292297 </weight>
<weight id='1598' > lhapdf=292298 </weight>
<weight id='1599' > lhapdf=292299 </weight>
<weight id='1600' > lhapdf=292300 </weight>
<weight id='1601' > lhapdf=292301 </weight>
<weight id='1602' > lhapdf=292302 </weight>
<weight id='1700' > lhapdf=292600 </weight>
<weight id='1800' > lhapdf=315000 </weight>
<weight id='1850' > lhapdf=315200 </weight>
<weight id='1900' > lhapdf=262000 </weight>
<weight id='1950' > lhapdf=263000 </weight>
</weightgroup>
</initrwgt>
</header>
<init>
     2212     2212  6.50000E+03  6.50000E+03      0      0 306000 306000     -4      1
  21.459897483726280   1.5878779425367362E-002  1.00000000000E-00 9999
</init>
<event>
      4   9999  2.16956E+01  3.66548E+01 -1.00000E+00  1.44976E-01
      21    -1     0     0   502   511  0.000000000E+00  0.000000000E+00  8.026508724E+02  8.026508724E+02  0.000000000E+00  0.00000E+00  9.000E+00
      21    -1     0     0   501   502  0.000000000E+00  0.000000000E+00 -9.682401940E+01  9.682401940E+01  0.000000000E+00  0.00000E+00  9.000E+00
      25     1     1     2     0     0 -3.278649785E+01  1.638965573E+01 -5.236656932E+01  1.403959493E+02  1.250007590E+02  0.00000E+00  9.000E+00
      21     1     1     2   501   511  3.278649785E+01 -1.638965573E+01  7.581934223E+02  7.590789425E+02  0.000000000E+00  0.00000E+00  9.000E+00
#rwgt            1           1   18.261678576595084                1           1           0
<rwgt>
<wgt id='1001'>0.21696E+02</wgt>
<wgt id='1002'>0.21125E+02</wgt>
<wgt id='1003'>0.22026E+02</wgt>
<wgt id='1004'>0.20091E+02</wgt>
<wgt id='1005'>0.19833E+02</wgt>
<wgt id='1006'>0.20099E+02</wgt>
<wgt id='1007'>0.22909E+02</wgt>
<wgt id='1008'>0.21816E+02</wgt>
<wgt id='1009'>0.23795E+02</wgt>
<wgt id='2000'>0.21696E+02</wgt>
<wgt id='2001'>0.21673E+02</wgt>
<wgt id='2002'>0.21804E+02</wgt>
<wgt id='2003'>0.21799E+02</wgt>
<wgt id='2004'>0.21721E+02</wgt>
<wgt id='2005'>0.21629E+02</wgt>
<wgt id='2006'>0.21622E+02</wgt>
<wgt id='2007'>0.21584E+02</wgt>
<wgt id='2008'>0.21643E+02</wgt>
<wgt id='2009'>0.21725E+02</wgt>
<wgt id='2010'>0.21680E+02</wgt>
<wgt id='2011'>0.21823E+02</wgt>
<wgt id='2012'>0.21845E+02</wgt>
<wgt id='2013'>0.21945E+02</wgt>
<wgt id='2014'>0.21796E+02</wgt>
<wgt id='2015'>0.21753E+02</wgt>
<wgt id='2016'>0.21626E+02</wgt>
<wgt id='2017'>0.21693E+02</wgt>
<wgt id='2018'>0.21804E+02</wgt>
<wgt id='2019'>0.21680E+02</wgt>
<wgt id='2020'>0.21766E+02</wgt>
<wgt id='2021'>0.21657E+02</wgt>
<wgt id='2022'>0.21701E+02</wgt>
<wgt id='2023'>0.21713E+02</wgt>
<wgt id='2024'>0.21717E+02</wgt>
<wgt id='2025'>0.21676E+02</wgt>
<wgt id='2026'>0.21677E+02</wgt>
<wgt id='2027'>0.21691E+02</wgt>
<wgt id='2028'>0.21706E+02</wgt>
<wgt id='2029'>0.21714E+02</wgt>
<wgt id='2030'>0.21706E+02</wgt>
<wgt id='2031'>0.21695E+02</wgt>
<wgt id='2032'>0.21705E+02</wgt>
<wgt id='2033'>0.21702E+02</wgt>
<wgt id='2034'>0.21699E+02</wgt>
<wgt id='2035'>0.21693E+02</wgt>
<wgt id='2036'>0.21692E+02</wgt>
<wgt id='2037'>0.21700E+02</wgt>
<wgt id='2038'>0.21694E+02</wgt>
<wgt id='2039'>0.21686E+02</wgt>
<wgt id='2040'>0.21691E+02</wgt>
<wgt id='2041'>0.21692E+02</wgt>
<wgt id='2042'>0.21690E+02</wgt>
<wgt id='2043'>0.21693E+02</wgt>
<wgt id='2044'>0.21702E+02</wgt>
<wgt id='2045'>0.21694E+02</wgt>
<wgt id='2046'>0.21704E+02</wgt>
<wgt id='2047'>0.21701E+02</wgt>
<wgt id='2048'>0.21692E+02</wgt>
<wgt id='2049'>0.21693E+02</wgt>
<wgt id='2050'>0.21701E+02</wgt>
<wgt id='2051'>0.21700E+02</wgt>
<wgt id='2052'>0.21694E+02</wgt>
<wgt id='2053'>0.21697E+02</wgt>
<wgt id='2054'>0.21697E+02</wgt>
<wgt id='2055'>0.21695E+02</wgt>
<wgt id='2056'>0.21695E+02</wgt>
<wgt id='2057'>0.21696E+02</wgt>
<wgt id='2058'>0.21697E+02</wgt>
<wgt id='2059'>0.21693E+02</wgt>
<wgt id='2060'>0.21695E+02</wgt>
<wgt id='2061'>0.21694E+02</wgt>
<wgt id='2062'>0.21697E+02</wgt>
<wgt id='2063'>0.21695E+02</wgt>
<wgt id='2064'>0.21694E+02</wgt>
<wgt id='2065'>0.21697E+02</wgt>
<wgt id='2066'>0.21695E+02</wgt>
<wgt id='2067'>0.21696E+02</wgt>
<wgt id='2068'>0.21696E+02</wgt>
<wgt id='2069'>0.21692E+02</wgt>
<wgt id='2070'>0.21692E+02</wgt>
<wgt id='2071'>0.21689E+02</wgt>
<wgt id='2072'>0.21695E+02</wgt>
<wgt id='2073'>0.21694E+02</wgt>
<wgt id='2074'>0.21688E+02</wgt>
<wgt id='2075'>0.21698E+02</wgt>
<wgt id='2076'>0.21690E+02</wgt>
<wgt id='2077'>0.21695E+02</wgt>
<wgt id='2078'>0.21699E+02</wgt>
<wgt id='2079'>0.21695E+02</wgt>
<wgt id='2080'>0.21694E+02</wgt>
<wgt id='2081'>0.21697E+02</wgt>
<wgt id='2082'>0.21695E+02</wgt>
<wgt id='2083'>0.21696E+02</wgt>
<wgt id='2084'>0.21698E+02</wgt>
<wgt id='2085'>0.21699E+02</wgt>
<wgt id='2086'>0.21693E+02</wgt>
<wgt id='2087'>0.21694E+02</wgt>
<wgt id='2088'>0.21698E+02</wgt>
<wgt id='2089'>0.21693E+02</wgt>
<wgt id='2090'>0.21695E+02</wgt>
<wgt id='2091'>0.21696E+02</wgt>
<wgt id='2092'>0.21697E+02</wgt>
<wgt id='2093'>0.21695E+02</wgt>
<wgt id='2094'>0.21698E+02</wgt>
<wgt id='2095'>0.21697E+02</wgt>
<wgt id='2096'>0.21695E+02</wgt>
<wgt id='2097'>0.21696E+02</wgt>
<wgt id='2098'>0.21696E+02</wgt>
<wgt id='2099'>0.21696E+02</wgt>
<wgt id='2100'>0.21696E+02</wgt>
<wgt id='2101'>0.21313E+02</wgt>
<wgt id='2102'>0.21983E+02</wgt>
<wgt id='2104'>0.19985E+02</wgt>
<wgt id='2105'>0.20253E+02</wgt>
<wgt id='2106'>0.20602E+02</wgt>
<wgt id='2107'>0.21027E+02</wgt>
<wgt id='2108'>0.21584E+02</wgt>
<wgt id='2109'>0.21918E+02</wgt>
<wgt id='2110'>0.22283E+02</wgt>
<wgt id='2111'>0.22601E+02</wgt>
<wgt id='3000'>0.22558E+02</wgt>
<wgt id='3001'>0.22657E+02</wgt>
<wgt id='3002'>0.22448E+02</wgt>
<wgt id='3003'>0.22664E+02</wgt>
<wgt id='3004'>0.22614E+02</wgt>
<wgt id='3005'>0.22694E+02</wgt>
<wgt id='3006'>0.22601E+02</wgt>
<wgt id='3007'>0.22623E+02</wgt>
<wgt id='3008'>0.22475E+02</wgt>
<wgt id='3009'>0.22536E+02</wgt>
<wgt id='3010'>0.22453E+02</wgt>
<wgt id='3011'>0.22622E+02</wgt>
<wgt id='3012'>0.22763E+02</wgt>
<wgt id='3013'>0.22325E+02</wgt>
<wgt id='3014'>0.22676E+02</wgt>
<wgt id='3015'>0.22668E+02</wgt>
<wgt id='3016'>0.22570E+02</wgt>
<wgt id='3017'>0.22688E+02</wgt>
<wgt id='3018'>0.22585E+02</wgt>
<wgt id='3019'>0.22457E+02</wgt>
<wgt id='3020'>0.22553E+02</wgt>
<wgt id='3021'>0.22499E+02</wgt>
<wgt id='3022'>0.22552E+02</wgt>
<wgt id='3023'>0.22540E+02</wgt>
<wgt id='3024'>0.22579E+02</wgt>
<wgt id='3025'>0.22563E+02</wgt>
<wgt id='3026'>0.22546E+02</wgt>
<wgt id='3027'>0.22570E+02</wgt>
<wgt id='3028'>0.22569E+02</wgt>
<wgt id='3029'>0.22574E+02</wgt>
<wgt id='3030'>0.22576E+02</wgt>
<wgt id='3031'>0.22563E+02</wgt>
<wgt id='3032'>0.22543E+02</wgt>
<wgt id='3033'>0.22551E+02</wgt>
<wgt id='3034'>0.22554E+02</wgt>
<wgt id='3035'>0.22573E+02</wgt>
<wgt id='3036'>0.22565E+02</wgt>
<wgt id='3037'>0.22558E+02</wgt>
<wgt id='3038'>0.22558E+02</wgt>
<wgt id='3039'>0.22568E+02</wgt>
<wgt id='3040'>0.22549E+02</wgt>
<wgt id='3041'>0.22555E+02</wgt>
<wgt id='3042'>0.22554E+02</wgt>
<wgt id='3043'>0.22553E+02</wgt>
<wgt id='3044'>0.22563E+02</wgt>
<wgt id='3045'>0.22563E+02</wgt>
<wgt id='3046'>0.22565E+02</wgt>
<wgt id='3047'>0.22558E+02</wgt>
<wgt id='3048'>0.22558E+02</wgt>
<wgt id='3049'>0.22556E+02</wgt>
<wgt id='3050'>0.22553E+02</wgt>
<wgt id='3051'>0.22565E+02</wgt>
<wgt id='3052'>0.22554E+02</wgt>
<wgt id='3053'>0.22556E+02</wgt>
<wgt id='3054'>0.22558E+02</wgt>
<wgt id='3055'>0.22554E+02</wgt>
<wgt id='3056'>0.22559E+02</wgt>
<wgt id='3057'>0.22557E+02</wgt>
<wgt id='3058'>0.22555E+02</wgt>
<wgt id='3059'>0.22558E+02</wgt>
<wgt id='3060'>0.22560E+02</wgt>
<wgt id='3061'>0.22561E+02</wgt>
<wgt id='3062'>0.22561E+02</wgt>
<wgt id='3063'>0.22561E+02</wgt>
<wgt id='3064'>0.22557E+02</wgt>
<wgt id='3065'>0.22558E+02</wgt>
<wgt id='3066'>0.22560E+02</wgt>
<wgt id='3067'>0.22553E+02</wgt>
<wgt id='3068'>0.22560E+02</wgt>
<wgt id='3069'>0.22556E+02</wgt>
<wgt id='3070'>0.22557E+02</wgt>
<wgt id='3071'>0.22557E+02</wgt>
<wgt id='3072'>0.22560E+02</wgt>
<wgt id='3073'>0.22556E+02</wgt>
<wgt id='3074'>0.22560E+02</wgt>
<wgt id='3075'>0.22559E+02</wgt>
<wgt id='3076'>0.22558E+02</wgt>
<wgt id='3077'>0.22559E+02</wgt>
<wgt id='3078'>0.22560E+02</wgt>
<wgt id='3079'>0.22559E+02</wgt>
<wgt id='3080'>0.22556E+02</wgt>
<wgt id='3081'>0.22559E+02</wgt>
<wgt id='3082'>0.22557E+02</wgt>
<wgt id='3083'>0.22557E+02</wgt>
<wgt id='3084'>0.22558E+02</wgt>
<wgt id='3085'>0.22558E+02</wgt>
<wgt id='3086'>0.22557E+02</wgt>
<wgt id='3087'>0.22556E+02</wgt>
<wgt id='3088'>0.22558E+02</wgt>
<wgt id='3089'>0.22558E+02</wgt>
<wgt id='3090'>0.22558E+02</wgt>
<wgt id='3091'>0.22559E+02</wgt>
<wgt id='3092'>0.22559E+02</wgt>
<wgt id='3093'>0.22558E+02</wgt>
<wgt id='3094'>0.22559E+02</wgt>
<wgt id='3095'>0.22558E+02</wgt>
<wgt id='3096'>0.22559E+02</wgt>
<wgt id='3097'>0.22557E+02</wgt>
<wgt id='3098'>0.22559E+02</wgt>
<wgt id='3099'>0.22559E+02</wgt>
<wgt id='3100'>0.22558E+02</wgt>
<wgt id='3101'>0.22201E+02</wgt>
<wgt id='3102'>0.23006E+02</wgt>
<wgt id='5000'>0.21091E+02</wgt>
<wgt id='5001'>0.20995E+02</wgt>
<wgt id='5002'>0.21065E+02</wgt>
<wgt id='5003'>0.20923E+02</wgt>
<wgt id='5004'>0.21181E+02</wgt>
<wgt id='5005'>0.20528E+02</wgt>
<wgt id='5006'>0.21587E+02</wgt>
<wgt id='5007'>0.21280E+02</wgt>
<wgt id='5008'>0.20756E+02</wgt>
<wgt id='5009'>0.21419E+02</wgt>
<wgt id='5010'>0.20921E+02</wgt>
<wgt id='5011'>0.21045E+02</wgt>
<wgt id='5012'>0.21082E+02</wgt>
<wgt id='5013'>0.20551E+02</wgt>
<wgt id='5014'>0.21058E+02</wgt>
<wgt id='5015'>0.21280E+02</wgt>
<wgt id='5016'>0.20519E+02</wgt>
<wgt id='5017'>0.21172E+02</wgt>
<wgt id='5018'>0.21003E+02</wgt>
<wgt id='5019'>0.20970E+02</wgt>
<wgt id='5020'>0.21186E+02</wgt>
<wgt id='5021'>0.21184E+02</wgt>
<wgt id='5022'>0.21031E+02</wgt>
<wgt id='5023'>0.21042E+02</wgt>
<wgt id='5024'>0.21137E+02</wgt>
<wgt id='5025'>0.21045E+02</wgt>
<wgt id='5026'>0.21128E+02</wgt>
<wgt id='5027'>0.21347E+02</wgt>
<wgt id='5028'>0.20661E+02</wgt>
<wgt id='5029'>0.20626E+02</wgt>
<wgt id='5030'>0.21370E+02</wgt>
<wgt id='5031'>0.20818E+02</wgt>
<wgt id='5032'>0.21486E+02</wgt>
<wgt id='5033'>0.20887E+02</wgt>
<wgt id='5034'>0.21266E+02</wgt>
<wgt id='5035'>0.20695E+02</wgt>
<wgt id='5036'>0.21412E+02</wgt>
<wgt id='5037'>0.21104E+02</wgt>
<wgt id='5038'>0.21062E+02</wgt>
<wgt id='5039'>0.21480E+02</wgt>
<wgt id='5040'>0.20891E+02</wgt>
<wgt id='5041'>0.20800E+02</wgt>
<wgt id='5042'>0.21142E+02</wgt>
<wgt id='5043'>0.21347E+02</wgt>
<wgt id='5044'>0.20427E+02</wgt>
<wgt id='5045'>0.21873E+02</wgt>
<wgt id='5046'>0.20891E+02</wgt>
<wgt id='5047'>0.21286E+02</wgt>
<wgt id='5048'>0.21190E+02</wgt>
<wgt id='5049'>0.21107E+02</wgt>
<wgt id='5050'>0.21128E+02</wgt>
<wgt id='5051'>0.21159E+02</wgt>
<wgt id='5052'>0.21060E+02</wgt>
<wgt id='5053'>0.21003E+02</wgt>
<wgt id='5054'>0.21797E+02</wgt>
<wgt id='5055'>0.20957E+02</wgt>
<wgt id='5056'>0.21202E+02</wgt>
<wgt id='5060'>0.20805E+02</wgt>
<wgt id='5070'>0.21282E+02</wgt>
<wgt id='4000'>0.22254E+02</wgt>
<wgt id='4001'>0.22275E+02</wgt>
<wgt id='4002'>0.22325E+02</wgt>
<wgt id='4003'>0.22975E+02</wgt>
<wgt id='4004'>0.21966E+02</wgt>
<wgt id='4005'>0.22342E+02</wgt>
<wgt id='4006'>0.22170E+02</wgt>
<wgt id='4007'>0.22593E+02</wgt>
<wgt id='4008'>0.22112E+02</wgt>
<wgt id='4009'>0.21688E+02</wgt>
<wgt id='4010'>0.22716E+02</wgt>
<wgt id='4011'>0.22647E+02</wgt>
<wgt id='4012'>0.22030E+02</wgt>
<wgt id='4013'>0.21273E+02</wgt>
<wgt id='4014'>0.22830E+02</wgt>
<wgt id='4015'>0.22451E+02</wgt>
<wgt id='4016'>0.22124E+02</wgt>
<wgt id='4017'>0.22037E+02</wgt>
<wgt id='4018'>0.22513E+02</wgt>
<wgt id='4019'>0.22575E+02</wgt>
<wgt id='4020'>0.21894E+02</wgt>
<wgt id='4021'>0.22323E+02</wgt>
<wgt id='4022'>0.22108E+02</wgt>
<wgt id='4023'>0.22116E+02</wgt>
<wgt id='4024'>0.22378E+02</wgt>
<wgt id='4025'>0.21841E+02</wgt>
<wgt id='4026'>0.22636E+02</wgt>
<wgt id='4027'>0.22158E+02</wgt>
<wgt id='4028'>0.22383E+02</wgt>
<wgt id='4029'>0.22058E+02</wgt>
<wgt id='4030'>0.22322E+02</wgt>
<wgt id='4031'>0.22284E+02</wgt>
<wgt id='4032'>0.22215E+02</wgt>
<wgt id='4033'>0.22254E+02</wgt>
<wgt id='4034'>0.22248E+02</wgt>
<wgt id='4035'>0.22675E+02</wgt>
<wgt id='4036'>0.21846E+02</wgt>
<wgt id='4037'>0.22481E+02</wgt>
<wgt id='4038'>0.21883E+02</wgt>
<wgt id='4039'>0.22248E+02</wgt>
<wgt id='4040'>0.22216E+02</wgt>
<wgt id='4041'>0.22488E+02</wgt>
<wgt id='4042'>0.22027E+02</wgt>
<wgt id='4043'>0.22520E+02</wgt>
<wgt id='4044'>0.21941E+02</wgt>
<wgt id='4045'>0.21979E+02</wgt>
<wgt id='4046'>0.22117E+02</wgt>
<wgt id='4047'>0.21891E+02</wgt>
<wgt id='4048'>0.22636E+02</wgt>
<wgt id='4049'>0.22466E+02</wgt>
<wgt id='4050'>0.21708E+02</wgt>
<wgt id='4051'>0.22211E+02</wgt>
<wgt id='4052'>0.22190E+02</wgt>
<wgt id='4053'>0.21683E+02</wgt>
<wgt id='4054'>0.22431E+02</wgt>
<wgt id='4055'>0.22059E+02</wgt>
<wgt id='4056'>0.22430E+02</wgt>
<wgt id='4060'>0.21853E+02</wgt>
<wgt id='4070'>0.22584E+02</wgt>
<wgt id='4080'>0.21827E+02</wgt>
<wgt id='6000'>0.22654E+02</wgt>
<wgt id='6001'>0.22663E+02</wgt>
<wgt id='6002'>0.22644E+02</wgt>
<wgt id='6003'>0.22664E+02</wgt>
<wgt id='6004'>0.22647E+02</wgt>
<wgt id='6005'>0.22724E+02</wgt>
<wgt id='6006'>0.22589E+02</wgt>
<wgt id='6007'>0.22548E+02</wgt>
<wgt id='6008'>0.22772E+02</wgt>
<wgt id='6009'>0.22729E+02</wgt>
<wgt id='6010'>0.22580E+02</wgt>
<wgt id='6011'>0.22706E+02</wgt>
<wgt id='6012'>0.22541E+02</wgt>
<wgt id='6013'>0.22628E+02</wgt>
<wgt id='6014'>0.22700E+02</wgt>
<wgt id='6015'>0.22578E+02</wgt>
<wgt id='6016'>0.22697E+02</wgt>
<wgt id='6017'>0.22516E+02</wgt>
<wgt id='6018'>0.22817E+02</wgt>
<wgt id='6019'>0.22690E+02</wgt>
<wgt id='6020'>0.22623E+02</wgt>
<wgt id='6021'>0.22599E+02</wgt>
<wgt id='6022'>0.22728E+02</wgt>
<wgt id='6023'>0.22486E+02</wgt>
<wgt id='6024'>0.22771E+02</wgt>
<wgt id='6025'>0.22317E+02</wgt>
<wgt id='6026'>0.22964E+02</wgt>
<wgt id='6027'>0.22717E+02</wgt>
<wgt id='6028'>0.22654E+02</wgt>
<wgt id='6029'>0.22821E+02</wgt>
<wgt id='6030'>0.22460E+02</wgt>
<wgt id='6031'>0.22698E+02</wgt>
<wgt id='6032'>0.22596E+02</wgt>
<wgt id='6033'>0.22695E+02</wgt>
<wgt id='6034'>0.22610E+02</wgt>
<wgt id='6035'>0.22633E+02</wgt>
<wgt id='6036'>0.22749E+02</wgt>
<wgt id='6037'>0.22698E+02</wgt>
<wgt id='6038'>0.22649E+02</wgt>
<wgt id='6039'>0.22636E+02</wgt>
<wgt id='6040'>0.22674E+02</wgt>
<wgt id='6041'>0.22610E+02</wgt>
<wgt id='6042'>0.22708E+02</wgt>
<wgt id='6043'>0.22964E+02</wgt>
<wgt id='6044'>0.22501E+02</wgt>
<wgt id='6045'>0.22632E+02</wgt>
<wgt id='6046'>0.22710E+02</wgt>
<wgt id='6047'>0.22541E+02</wgt>
<wgt id='6048'>0.22556E+02</wgt>
<wgt id='6049'>0.22603E+02</wgt>
<wgt id='6050'>0.22663E+02</wgt>
<wgt id='7000'>0.21256E+02</wgt>
<wgt id='7001'>0.21247E+02</wgt>
<wgt id='7002'>0.21268E+02</wgt>
<wgt id='7003'>0.21329E+02</wgt>
<wgt id='7004'>0.21184E+02</wgt>
<wgt id='7005'>0.21300E+02</wgt>
<wgt id='7006'>0.21239E+02</wgt>
<wgt id='7007'>0.21165E+02</wgt>
<wgt id='7008'>0.21347E+02</wgt>
<wgt id='7009'>0.21295E+02</wgt>
<wgt id='7010'>0.21219E+02</wgt>
<wgt id='7011'>0.21042E+02</wgt>
<wgt id='7012'>0.21350E+02</wgt>
<wgt id='7013'>0.21258E+02</wgt>
<wgt id='7014'>0.21255E+02</wgt>
<wgt id='7015'>0.21193E+02</wgt>
<wgt id='7016'>0.21325E+02</wgt>
<wgt id='7017'>0.21209E+02</wgt>
<wgt id='7018'>0.21281E+02</wgt>
<wgt id='7019'>0.21229E+02</wgt>
<wgt id='7020'>0.21294E+02</wgt>
<wgt id='7021'>0.21241E+02</wgt>
<wgt id='7022'>0.21266E+02</wgt>
<wgt id='7023'>0.21536E+02</wgt>
<wgt id='7024'>0.20987E+02</wgt>
<wgt id='7025'>0.21363E+02</wgt>
<wgt id='7026'>0.20996E+02</wgt>
<wgt id='7027'>0.21360E+02</wgt>
<wgt id='7028'>0.21207E+02</wgt>
<wgt id='7029'>0.21139E+02</wgt>
<wgt id='7030'>0.21566E+02</wgt>
<wgt id='7031'>0.21260E+02</wgt>
<wgt id='7032'>0.21254E+02</wgt>
<wgt id='7033'>0.21221E+02</wgt>
<wgt id='7034'>0.21336E+02</wgt>
<wgt id='7035'>0.21329E+02</wgt>
<wgt id='7036'>0.21234E+02</wgt>
<wgt id='7037'>0.21266E+02</wgt>
<wgt id='7038'>0.21258E+02</wgt>
<wgt id='7039'>0.21240E+02</wgt>
<wgt id='7040'>0.21268E+02</wgt>
<wgt id='7041'>0.21213E+02</wgt>
<wgt id='7042'>0.21279E+02</wgt>
<wgt id='7043'>0.21276E+02</wgt>
<wgt id='7044'>0.21141E+02</wgt>
<wgt id='7045'>0.21087E+02</wgt>
<wgt id='7046'>0.21276E+02</wgt>
<wgt id='7047'>0.21255E+02</wgt>
<wgt id='7048'>0.21246E+02</wgt>
<wgt id='7049'>0.21254E+02</wgt>
<wgt id='7050'>0.21177E+02</wgt>
<wgt id='7060'>0.31301E+02</wgt>
<wgt id='8000'>0.21533E+02</wgt>
<wgt id='8001'>0.21527E+02</wgt>
<wgt id='8002'>0.21540E+02</wgt>
<wgt id='8003'>0.21535E+02</wgt>
<wgt id='8004'>0.21532E+02</wgt>
<wgt id='8005'>0.21475E+02</wgt>
<wgt id='8006'>0.21516E+02</wgt>
<wgt id='8007'>0.21498E+02</wgt>
<wgt id='8008'>0.21573E+02</wgt>
<wgt id='8009'>0.21617E+02</wgt>
<wgt id='8010'>0.21535E+02</wgt>
<wgt id='8011'>0.21520E+02</wgt>
<wgt id='8012'>0.21512E+02</wgt>
<wgt id='8013'>0.21534E+02</wgt>
<wgt id='8014'>0.21516E+02</wgt>
<wgt id='8015'>0.21516E+02</wgt>
<wgt id='8016'>0.21537E+02</wgt>
<wgt id='8017'>0.21539E+02</wgt>
<wgt id='8018'>0.21523E+02</wgt>
<wgt id='8019'>0.21579E+02</wgt>
<wgt id='8020'>0.21447E+02</wgt>
<wgt id='8021'>0.21539E+02</wgt>
<wgt id='8022'>0.21377E+02</wgt>
<wgt id='8023'>0.21565E+02</wgt>
<wgt id='8024'>0.21597E+02</wgt>
<wgt id='8025'>0.21625E+02</wgt>
<wgt id='8026'>0.21583E+02</wgt>
<wgt id='8027'>0.21488E+02</wgt>
<wgt id='8028'>0.21556E+02</wgt>
<wgt id='8029'>0.21370E+02</wgt>
<wgt id='8500'>0.22310E+02</wgt>
<wgt id='8501'>0.22284E+02</wgt>
<wgt id='8502'>0.22570E+02</wgt>
<wgt id='8503'>0.22489E+02</wgt>
<wgt id='8504'>0.22256E+02</wgt>
<wgt id='8505'>0.22180E+02</wgt>
<wgt id='8506'>0.22231E+02</wgt>
<wgt id='8507'>0.22474E+02</wgt>
<wgt id='8508'>0.22727E+02</wgt>
<wgt id='8509'>0.22125E+02</wgt>
<wgt id='8510'>0.22679E+02</wgt>
<wgt id='8511'>0.22329E+02</wgt>
<wgt id='8512'>0.21997E+02</wgt>
<wgt id='8513'>0.22351E+02</wgt>
<wgt id='8514'>0.22235E+02</wgt>
<wgt id='8515'>0.22297E+02</wgt>
<wgt id='8516'>0.22396E+02</wgt>
<wgt id='8517'>0.22295E+02</wgt>
<wgt id='8518'>0.22249E+02</wgt>
<wgt id='8519'>0.22249E+02</wgt>
<wgt id='8520'>0.22332E+02</wgt>
<wgt id='8521'>0.22211E+02</wgt>
<wgt id='8522'>0.22325E+02</wgt>
<wgt id='8523'>0.22280E+02</wgt>
<wgt id='8524'>0.22313E+02</wgt>
<wgt id='8525'>0.22284E+02</wgt>
<wgt id='8526'>0.22279E+02</wgt>
<wgt id='8527'>0.22315E+02</wgt>
<wgt id='8528'>0.22253E+02</wgt>
<wgt id='8529'>0.22299E+02</wgt>
<wgt id='8530'>0.22305E+02</wgt>
<wgt id='8531'>0.22303E+02</wgt>
<wgt id='8532'>0.22314E+02</wgt>
<wgt id='8533'>0.22267E+02</wgt>
<wgt id='8534'>0.22318E+02</wgt>
<wgt id='8535'>0.22358E+02</wgt>
<wgt id='8536'>0.22293E+02</wgt>
<wgt id='8537'>0.22319E+02</wgt>
<wgt id='8538'>0.22289E+02</wgt>
<wgt id='8539'>0.22315E+02</wgt>
<wgt id='8540'>0.22312E+02</wgt>
<wgt id='8541'>0.22320E+02</wgt>
<wgt id='8542'>0.22325E+02</wgt>
<wgt id='8543'>0.22293E+02</wgt>
<wgt id='8544'>0.22330E+02</wgt>
<wgt id='8545'>0.22328E+02</wgt>
<wgt id='8546'>0.22332E+02</wgt>
<wgt id='8547'>0.22292E+02</wgt>
<wgt id='8548'>0.22289E+02</wgt>
<wgt id='8549'>0.22311E+02</wgt>
<wgt id='8550'>0.22315E+02</wgt>
<wgt id='8551'>0.22291E+02</wgt>
<wgt id='8552'>0.22316E+02</wgt>
<wgt id='8553'>0.22303E+02</wgt>
<wgt id='8554'>0.22302E+02</wgt>
<wgt id='8555'>0.22313E+02</wgt>
<wgt id='8556'>0.22309E+02</wgt>
<wgt id='8557'>0.22305E+02</wgt>
<wgt id='8558'>0.22333E+02</wgt>
<wgt id='8559'>0.22300E+02</wgt>
<wgt id='8560'>0.22288E+02</wgt>
<wgt id='8561'>0.22307E+02</wgt>
<wgt id='8562'>0.22293E+02</wgt>
<wgt id='8563'>0.22312E+02</wgt>
<wgt id='8564'>0.22306E+02</wgt>
<wgt id='8565'>0.22309E+02</wgt>
<wgt id='8566'>0.22305E+02</wgt>
<wgt id='8567'>0.22308E+02</wgt>
<wgt id='8568'>0.22318E+02</wgt>
<wgt id='8569'>0.22316E+02</wgt>
<wgt id='8570'>0.22310E+02</wgt>
<wgt id='8571'>0.22302E+02</wgt>
<wgt id='8572'>0.22303E+02</wgt>
<wgt id='8573'>0.22302E+02</wgt>
<wgt id='8574'>0.22316E+02</wgt>
<wgt id='8575'>0.22308E+02</wgt>
<wgt id='8576'>0.22307E+02</wgt>
<wgt id='8577'>0.22310E+02</wgt>
<wgt id='8578'>0.22313E+02</wgt>
<wgt id='8579'>0.22322E+02</wgt>
<wgt id='8580'>0.22310E+02</wgt>
<wgt id='8581'>0.22314E+02</wgt>
<wgt id='8582'>0.22297E+02</wgt>
<wgt id='8583'>0.22320E+02</wgt>
<wgt id='8584'>0.22314E+02</wgt>
<wgt id='8585'>0.22314E+02</wgt>
<wgt id='8586'>0.22319E+02</wgt>
<wgt id='8587'>0.22307E+02</wgt>
<wgt id='8588'>0.22305E+02</wgt>
<wgt id='8589'>0.22312E+02</wgt>
<wgt id='8590'>0.22308E+02</wgt>
<wgt id='8591'>0.22308E+02</wgt>
<wgt id='8592'>0.22310E+02</wgt>
<wgt id='8593'>0.22302E+02</wgt>
<wgt id='8594'>0.22314E+02</wgt>
<wgt id='8595'>0.22313E+02</wgt>
<wgt id='8596'>0.22305E+02</wgt>
<wgt id='8597'>0.22313E+02</wgt>
<wgt id='8598'>0.22315E+02</wgt>
<wgt id='8599'>0.22313E+02</wgt>
<wgt id='8600'>0.22310E+02</wgt>
<wgt id='8601'>0.22018E+02</wgt>
<wgt id='8602'>0.22531E+02</wgt>
<wgt id='9000'>0.21225E+02</wgt>
<wgt id='9001'>0.21266E+02</wgt>
<wgt id='9002'>0.21354E+02</wgt>
<wgt id='9003'>0.21004E+02</wgt>
<wgt id='9004'>0.21171E+02</wgt>
<wgt id='9005'>0.21346E+02</wgt>
<wgt id='9006'>0.21146E+02</wgt>
<wgt id='9007'>0.21227E+02</wgt>
<wgt id='9008'>0.21272E+02</wgt>
<wgt id='9009'>0.21208E+02</wgt>
<wgt id='9010'>0.21192E+02</wgt>
<wgt id='9011'>0.21485E+02</wgt>
<wgt id='9012'>0.20900E+02</wgt>
<wgt id='9013'>0.20894E+02</wgt>
<wgt id='9014'>0.20925E+02</wgt>
<wgt id='9015'>0.21197E+02</wgt>
<wgt id='9016'>0.21301E+02</wgt>
<wgt id='9017'>0.21260E+02</wgt>
<wgt id='9018'>0.21231E+02</wgt>
<wgt id='9019'>0.21202E+02</wgt>
<wgt id='9020'>0.21307E+02</wgt>
<wgt id='9021'>0.21204E+02</wgt>
<wgt id='9022'>0.21246E+02</wgt>
<wgt id='9023'>0.21198E+02</wgt>
<wgt id='9024'>0.21194E+02</wgt>
<wgt id='9025'>0.21264E+02</wgt>
<wgt id='9026'>0.21235E+02</wgt>
<wgt id='9027'>0.21201E+02</wgt>
<wgt id='9028'>0.21241E+02</wgt>
<wgt id='9029'>0.21243E+02</wgt>
<wgt id='9030'>0.21232E+02</wgt>
<wgt id='9031'>0.21220E+02</wgt>
<wgt id='9032'>0.21240E+02</wgt>
<wgt id='9033'>0.21253E+02</wgt>
<wgt id='9034'>0.21211E+02</wgt>
<wgt id='9035'>0.21259E+02</wgt>
<wgt id='9036'>0.21223E+02</wgt>
<wgt id='9037'>0.21244E+02</wgt>
<wgt id='9038'>0.21225E+02</wgt>
<wgt id='9039'>0.21228E+02</wgt>
<wgt id='9040'>0.21199E+02</wgt>
<wgt id='9041'>0.21215E+02</wgt>
<wgt id='9042'>0.21221E+02</wgt>
<wgt id='9043'>0.21209E+02</wgt>
<wgt id='9044'>0.21231E+02</wgt>
<wgt id='9045'>0.21221E+02</wgt>
<wgt id='9046'>0.21196E+02</wgt>
<wgt id='9047'>0.21214E+02</wgt>
<wgt id='9048'>0.21231E+02</wgt>
<wgt id='9049'>0.21214E+02</wgt>
<wgt id='9050'>0.21229E+02</wgt>
<wgt id='9051'>0.21232E+02</wgt>
<wgt id='9052'>0.21229E+02</wgt>
<wgt id='9053'>0.21228E+02</wgt>
<wgt id='9054'>0.21214E+02</wgt>
<wgt id='9055'>0.21220E+02</wgt>
<wgt id='9056'>0.21243E+02</wgt>
<wgt id='9057'>0.21223E+02</wgt>
<wgt id='9058'>0.21211E+02</wgt>
<wgt id='9059'>0.21216E+02</wgt>
<wgt id='9060'>0.21218E+02</wgt>
<wgt id='9061'>0.21227E+02</wgt>
<wgt id='9062'>0.21227E+02</wgt>
<wgt id='9063'>0.21233E+02</wgt>
<wgt id='9064'>0.21220E+02</wgt>
<wgt id='9065'>0.21224E+02</wgt>
<wgt id='9066'>0.21226E+02</wgt>
<wgt id='9067'>0.21231E+02</wgt>
<wgt id='9068'>0.21230E+02</wgt>
<wgt id='9069'>0.21236E+02</wgt>
<wgt id='9070'>0.21222E+02</wgt>
<wgt id='9071'>0.21236E+02</wgt>
<wgt id='9072'>0.21237E+02</wgt>
<wgt id='9073'>0.21219E+02</wgt>
<wgt id='9074'>0.21227E+02</wgt>
<wgt id='9075'>0.21223E+02</wgt>
<wgt id='9076'>0.21223E+02</wgt>
<wgt id='9077'>0.21228E+02</wgt>
<wgt id='9078'>0.21226E+02</wgt>
<wgt id='9079'>0.21222E+02</wgt>
<wgt id='9080'>0.21238E+02</wgt>
<wgt id='9081'>0.21222E+02</wgt>
<wgt id='9082'>0.21229E+02</wgt>
<wgt id='9083'>0.21218E+02</wgt>
<wgt id='9084'>0.21219E+02</wgt>
<wgt id='9085'>0.21220E+02</wgt>
<wgt id='9086'>0.21227E+02</wgt>
<wgt id='9087'>0.21213E+02</wgt>
<wgt id='9088'>0.21221E+02</wgt>
<wgt id='9089'>0.21220E+02</wgt>
<wgt id='9090'>0.21228E+02</wgt>
<wgt id='9091'>0.21223E+02</wgt>
<wgt id='9092'>0.21224E+02</wgt>
<wgt id='9093'>0.21221E+02</wgt>
<wgt id='9094'>0.21224E+02</wgt>
<wgt id='9095'>0.21227E+02</wgt>
<wgt id='9096'>0.21220E+02</wgt>
<wgt id='9097'>0.21226E+02</wgt>
<wgt id='9098'>0.21225E+02</wgt>
<wgt id='9099'>0.21220E+02</wgt>
<wgt id='9100'>0.21224E+02</wgt>
<wgt id='9101'>0.21037E+02</wgt>
<wgt id='9102'>0.21328E+02</wgt>
<wgt id='10000'>0.22310E+02</wgt>
<wgt id='10001'>0.22417E+02</wgt>
<wgt id='10002'>0.22333E+02</wgt>
<wgt id='10003'>0.22320E+02</wgt>
<wgt id='10004'>0.22433E+02</wgt>
<wgt id='10005'>0.23054E+02</wgt>
<wgt id='10006'>0.22322E+02</wgt>
<wgt id='10007'>0.22307E+02</wgt>
<wgt id='10008'>0.22331E+02</wgt>
<wgt id='10009'>0.22282E+02</wgt>
<wgt id='10010'>0.22305E+02</wgt>
<wgt id='10011'>0.22300E+02</wgt>
<wgt id='10012'>0.22274E+02</wgt>
<wgt id='10013'>0.22302E+02</wgt>
<wgt id='10014'>0.22329E+02</wgt>
<wgt id='10015'>0.22340E+02</wgt>
<wgt id='10016'>0.22334E+02</wgt>
<wgt id='10017'>0.22153E+02</wgt>
<wgt id='10018'>0.22328E+02</wgt>
<wgt id='10019'>0.22266E+02</wgt>
<wgt id='10020'>0.22328E+02</wgt>
<wgt id='10021'>0.22317E+02</wgt>
<wgt id='10022'>0.22311E+02</wgt>
<wgt id='10023'>0.22323E+02</wgt>
<wgt id='10024'>0.22318E+02</wgt>
<wgt id='10025'>0.22301E+02</wgt>
<wgt id='10026'>0.22295E+02</wgt>
<wgt id='10027'>0.22298E+02</wgt>
<wgt id='10028'>0.22310E+02</wgt>
<wgt id='10029'>0.22331E+02</wgt>
<wgt id='10030'>0.22301E+02</wgt>
<wgt id='10031'>0.22018E+02</wgt>
<wgt id='10032'>0.22531E+02</wgt>
<wgt id='11000'>0.21224E+02</wgt>
<wgt id='11001'>0.21279E+02</wgt>
<wgt id='11002'>0.21304E+02</wgt>
<wgt id='11003'>0.21200E+02</wgt>
<wgt id='11004'>0.21310E+02</wgt>
<wgt id='11005'>0.20898E+02</wgt>
<wgt id='11006'>0.21214E+02</wgt>
<wgt id='11007'>0.21176E+02</wgt>
<wgt id='11008'>0.21175E+02</wgt>
<wgt id='11009'>0.21107E+02</wgt>
<wgt id='11010'>0.21282E+02</wgt>
<wgt id='11011'>0.21085E+02</wgt>
<wgt id='11012'>0.21247E+02</wgt>
<wgt id='11013'>0.21316E+02</wgt>
<wgt id='11014'>0.21147E+02</wgt>
<wgt id='11015'>0.21192E+02</wgt>
<wgt id='11016'>0.21199E+02</wgt>
<wgt id='11017'>0.21425E+02</wgt>
<wgt id='11018'>0.21229E+02</wgt>
<wgt id='11019'>0.21218E+02</wgt>
<wgt id='11020'>0.21248E+02</wgt>
<wgt id='11021'>0.21308E+02</wgt>
<wgt id='11022'>0.21712E+02</wgt>
<wgt id='11023'>0.21211E+02</wgt>
<wgt id='11024'>0.21200E+02</wgt>
<wgt id='11025'>0.21164E+02</wgt>
<wgt id='11026'>0.21222E+02</wgt>
<wgt id='11027'>0.21224E+02</wgt>
<wgt id='11028'>0.21208E+02</wgt>
<wgt id='11029'>0.21196E+02</wgt>
<wgt id='11030'>0.21229E+02</wgt>
<wgt id='11031'>0.21037E+02</wgt>
<wgt id='11032'>0.21328E+02</wgt>
<wgt id='12000'>0.23939E+02</wgt>
<wgt id='12001'>0.23903E+02</wgt>
<wgt id='12002'>0.23974E+02</wgt>
<wgt id='12003'>0.24005E+02</wgt>
<wgt id='12004'>0.23872E+02</wgt>
<wgt id='12005'>0.23980E+02</wgt>
<wgt id='12006'>0.23897E+02</wgt>
<wgt id='12007'>0.24009E+02</wgt>
<wgt id='12008'>0.23871E+02</wgt>
<wgt id='12009'>0.23981E+02</wgt>
<wgt id='12010'>0.23897E+02</wgt>
<wgt id='12011'>0.23911E+02</wgt>
<wgt id='12012'>0.23970E+02</wgt>
<wgt id='12013'>0.23836E+02</wgt>
<wgt id='12014'>0.24043E+02</wgt>
<wgt id='12015'>0.23936E+02</wgt>
<wgt id='12016'>0.23906E+02</wgt>
<wgt id='12017'>0.24008E+02</wgt>
<wgt id='12018'>0.23857E+02</wgt>
<wgt id='12019'>0.23838E+02</wgt>
<wgt id='12020'>0.24038E+02</wgt>
<wgt id='12021'>0.24051E+02</wgt>
<wgt id='12022'>0.23797E+02</wgt>
<wgt id='12023'>0.23857E+02</wgt>
<wgt id='12024'>0.23891E+02</wgt>
<wgt id='12025'>0.24033E+02</wgt>
<wgt id='12026'>0.23882E+02</wgt>
<wgt id='12027'>0.23867E+02</wgt>
<wgt id='12028'>0.24034E+02</wgt>
<wgt id='12050'>0.23939E+02</wgt>
<wgt id='12051'>0.23915E+02</wgt>
<wgt id='12052'>0.23959E+02</wgt>
<wgt id='12053'>0.23909E+02</wgt>
<wgt id='12054'>0.23952E+02</wgt>
<wgt id='12055'>0.24014E+02</wgt>
<wgt id='12056'>0.23699E+02</wgt>
<wgt id='12057'>0.23828E+02</wgt>
<wgt id='12058'>0.24040E+02</wgt>
<wgt id='12059'>0.23862E+02</wgt>
<wgt id='12060'>0.24021E+02</wgt>
<wgt id='12061'>0.23957E+02</wgt>
<wgt id='12062'>0.23987E+02</wgt>
<wgt id='12063'>0.23689E+02</wgt>
<wgt id='13000'>0.21393E+02</wgt>
<wgt id='13001'>0.21376E+02</wgt>
<wgt id='13002'>0.21408E+02</wgt>
<wgt id='13003'>0.21425E+02</wgt>
<wgt id='13004'>0.21359E+02</wgt>
<wgt id='13005'>0.21448E+02</wgt>
<wgt id='13006'>0.21336E+02</wgt>
<wgt id='13007'>0.21491E+02</wgt>
<wgt id='13008'>0.21295E+02</wgt>
<wgt id='13009'>0.21405E+02</wgt>
<wgt id='13010'>0.21381E+02</wgt>
<wgt id='13011'>0.21443E+02</wgt>
<wgt id='13012'>0.21341E+02</wgt>
<wgt id='13013'>0.21323E+02</wgt>
<wgt id='13014'>0.21461E+02</wgt>
<wgt id='13015'>0.21353E+02</wgt>
<wgt id='13016'>0.21414E+02</wgt>
<wgt id='13017'>0.21379E+02</wgt>
<wgt id='13018'>0.21400E+02</wgt>
<wgt id='13019'>0.21353E+02</wgt>
<wgt id='13020'>0.21429E+02</wgt>
<wgt id='13021'>0.21180E+02</wgt>
<wgt id='13022'>0.21572E+02</wgt>
<wgt id='13023'>0.21413E+02</wgt>
<wgt id='13024'>0.21367E+02</wgt>
<wgt id='13025'>0.21353E+02</wgt>
<wgt id='13026'>0.21373E+02</wgt>
<wgt id='13027'>0.21407E+02</wgt>
<wgt id='13028'>0.21403E+02</wgt>
<wgt id='13050'>0.21394E+02</wgt>
<wgt id='13051'>0.21396E+02</wgt>
<wgt id='13052'>0.21353E+02</wgt>
<wgt id='13053'>0.21388E+02</wgt>
<wgt id='13054'>0.21385E+02</wgt>
<wgt id='13055'>0.21383E+02</wgt>
<wgt id='13056'>0.21399E+02</wgt>
<wgt id='13057'>0.21307E+02</wgt>
<wgt id='13058'>0.21519E+02</wgt>
<wgt id='13059'>0.21317E+02</wgt>
<wgt id='13060'>0.21498E+02</wgt>
<wgt id='13061'>0.21328E+02</wgt>
<wgt id='13062'>0.21576E+02</wgt>
<wgt id='13063'>0.21225E+02</wgt>
<wgt id='14000'>0.22160E+02</wgt>
<wgt id='14001'>0.22157E+02</wgt>
<wgt id='14002'>0.22154E+02</wgt>
<wgt id='14003'>0.22150E+02</wgt>
<wgt id='14004'>0.22147E+02</wgt>
<wgt id='14005'>0.22143E+02</wgt>
<wgt id='14006'>0.22140E+02</wgt>
<wgt id='14007'>0.22137E+02</wgt>
<wgt id='14008'>0.22133E+02</wgt>
<wgt id='14009'>0.22130E+02</wgt>
<wgt id='14010'>0.22126E+02</wgt>
<wgt id='14011'>0.22123E+02</wgt>
<wgt id='14012'>0.22119E+02</wgt>
<wgt id='14013'>0.22116E+02</wgt>
<wgt id='14014'>0.22113E+02</wgt>
<wgt id='14015'>0.22109E+02</wgt>
<wgt id='14016'>0.22106E+02</wgt>
<wgt id='14017'>0.22102E+02</wgt>
<wgt id='14018'>0.22099E+02</wgt>
<wgt id='14019'>0.22095E+02</wgt>
<wgt id='14020'>0.22092E+02</wgt>
<wgt id='14021'>0.22089E+02</wgt>
<wgt id='14022'>0.22085E+02</wgt>
<wgt id='14023'>0.22082E+02</wgt>
<wgt id='14024'>0.22078E+02</wgt>
<wgt id='14025'>0.22075E+02</wgt>
<wgt id='14026'>0.22072E+02</wgt>
<wgt id='14027'>0.22068E+02</wgt>
<wgt id='14028'>0.22065E+02</wgt>
<wgt id='14029'>0.22061E+02</wgt>
<wgt id='14030'>0.22058E+02</wgt>
<wgt id='15000'>0.20965E+02</wgt>
<wgt id='15001'>0.21004E+02</wgt>
<wgt id='15002'>0.21091E+02</wgt>
<wgt id='15003'>0.20748E+02</wgt>
<wgt id='15004'>0.20912E+02</wgt>
<wgt id='15005'>0.21085E+02</wgt>
<wgt id='15006'>0.20888E+02</wgt>
<wgt id='15007'>0.20968E+02</wgt>
<wgt id='15008'>0.21012E+02</wgt>
<wgt id='15009'>0.20948E+02</wgt>
<wgt id='15010'>0.20933E+02</wgt>
<wgt id='15011'>0.21223E+02</wgt>
<wgt id='15012'>0.20644E+02</wgt>
<wgt id='15013'>0.20639E+02</wgt>
<wgt id='15014'>0.20668E+02</wgt>
<wgt id='15015'>0.20934E+02</wgt>
<wgt id='15016'>0.21042E+02</wgt>
<wgt id='15017'>0.20998E+02</wgt>
<wgt id='15018'>0.20971E+02</wgt>
<wgt id='15019'>0.20944E+02</wgt>
<wgt id='15020'>0.21048E+02</wgt>
<wgt id='15021'>0.20943E+02</wgt>
<wgt id='15022'>0.20986E+02</wgt>
<wgt id='15023'>0.20937E+02</wgt>
<wgt id='15024'>0.20933E+02</wgt>
<wgt id='15025'>0.21002E+02</wgt>
<wgt id='15026'>0.20974E+02</wgt>
<wgt id='15027'>0.20943E+02</wgt>
<wgt id='15028'>0.20982E+02</wgt>
<wgt id='15029'>0.20982E+02</wgt>
<wgt id='15030'>0.20972E+02</wgt>
<wgt id='15031'>0.20961E+02</wgt>
<wgt id='15032'>0.20979E+02</wgt>
<wgt id='15033'>0.20992E+02</wgt>
<wgt id='15034'>0.20951E+02</wgt>
<wgt id='15035'>0.20999E+02</wgt>
<wgt id='15036'>0.20963E+02</wgt>
<wgt id='15037'>0.20984E+02</wgt>
<wgt id='15038'>0.20965E+02</wgt>
<wgt id='15039'>0.20967E+02</wgt>
<wgt id='15040'>0.20939E+02</wgt>
<wgt id='15041'>0.20955E+02</wgt>
<wgt id='15042'>0.20960E+02</wgt>
<wgt id='15043'>0.20950E+02</wgt>
<wgt id='15044'>0.20970E+02</wgt>
<wgt id='15045'>0.20960E+02</wgt>
<wgt id='15046'>0.20936E+02</wgt>
<wgt id='15047'>0.20954E+02</wgt>
<wgt id='15048'>0.20971E+02</wgt>
<wgt id='15049'>0.20954E+02</wgt>
<wgt id='15050'>0.20969E+02</wgt>
<wgt id='15051'>0.20972E+02</wgt>
<wgt id='15052'>0.20969E+02</wgt>
<wgt id='15053'>0.20968E+02</wgt>
<wgt id='15054'>0.20954E+02</wgt>
<wgt id='15055'>0.20960E+02</wgt>
<wgt id='15056'>0.20983E+02</wgt>
<wgt id='15057'>0.20962E+02</wgt>
<wgt id='15058'>0.20952E+02</wgt>
<wgt id='15059'>0.20956E+02</wgt>
<wgt id='15060'>0.20958E+02</wgt>
<wgt id='15061'>0.20967E+02</wgt>
<wgt id='15062'>0.20967E+02</wgt>
<wgt id='15063'>0.20973E+02</wgt>
<wgt id='15064'>0.20960E+02</wgt>
<wgt id='15065'>0.20964E+02</wgt>
<wgt id='15066'>0.20966E+02</wgt>
<wgt id='15067'>0.20971E+02</wgt>
<wgt id='15068'>0.20970E+02</wgt>
<wgt id='15069'>0.20975E+02</wgt>
<wgt id='15070'>0.20962E+02</wgt>
<wgt id='15071'>0.20976E+02</wgt>
<wgt id='15072'>0.20977E+02</wgt>
<wgt id='15073'>0.20959E+02</wgt>
<wgt id='15074'>0.20967E+02</wgt>
<wgt id='15075'>0.20963E+02</wgt>
<wgt id='15076'>0.20963E+02</wgt>
<wgt id='15077'>0.20968E+02</wgt>
<wgt id='15078'>0.20967E+02</wgt>
<wgt id='15079'>0.20962E+02</wgt>
<wgt id='15080'>0.20977E+02</wgt>
<wgt id='15081'>0.20962E+02</wgt>
<wgt id='15082'>0.20969E+02</wgt>
<wgt id='15083'>0.20958E+02</wgt>
<wgt id='15084'>0.20959E+02</wgt>
<wgt id='15085'>0.20960E+02</wgt>
<wgt id='15086'>0.20967E+02</wgt>
<wgt id='15087'>0.20953E+02</wgt>
<wgt id='15088'>0.20961E+02</wgt>
<wgt id='15089'>0.20960E+02</wgt>
<wgt id='15090'>0.20968E+02</wgt>
<wgt id='15091'>0.20963E+02</wgt>
<wgt id='15092'>0.20964E+02</wgt>
<wgt id='15093'>0.20961E+02</wgt>
<wgt id='15094'>0.20963E+02</wgt>
<wgt id='15095'>0.20967E+02</wgt>
<wgt id='15096'>0.20960E+02</wgt>
<wgt id='15097'>0.20966E+02</wgt>
<wgt id='15098'>0.20965E+02</wgt>
<wgt id='15099'>0.20960E+02</wgt>
<wgt id='15100'>0.20964E+02</wgt>
<wgt id='15101'>0.20964E+02</wgt>
<wgt id='15102'>0.20963E+02</wgt>
<wgt id='15103'>0.20965E+02</wgt>
<wgt id='15104'>0.20965E+02</wgt>
<wgt id='15105'>0.20965E+02</wgt>
<wgt id='15106'>0.20965E+02</wgt>
<wgt id='15107'>0.20963E+02</wgt>
<wgt id='1500'>0.22009E+02</wgt>
<wgt id='1501'>0.19794E+02</wgt>
<wgt id='1502'>0.22143E+02</wgt>
<wgt id='1503'>0.21754E+02</wgt>
<wgt id='1504'>0.21768E+02</wgt>
<wgt id='1505'>0.18830E+02</wgt>
<wgt id='1506'>0.21975E+02</wgt>
<wgt id='1507'>0.22423E+02</wgt>
<wgt id='1508'>0.21844E+02</wgt>
<wgt id='1509'>0.21921E+02</wgt>
<wgt id='1510'>0.21333E+02</wgt>
<wgt id='1511'>0.21767E+02</wgt>
<wgt id='1512'>0.22429E+02</wgt>
<wgt id='1513'>0.22380E+02</wgt>
<wgt id='1514'>0.21323E+02</wgt>
<wgt id='1515'>0.21898E+02</wgt>
<wgt id='1516'>0.22461E+02</wgt>
<wgt id='1517'>0.21580E+02</wgt>
<wgt id='1518'>0.21748E+02</wgt>
<wgt id='1519'>0.22247E+02</wgt>
<wgt id='1520'>0.22217E+02</wgt>
<wgt id='1521'>0.22068E+02</wgt>
<wgt id='1522'>0.21905E+02</wgt>
<wgt id='1523'>0.23782E+02</wgt>
<wgt id='1524'>0.21748E+02</wgt>
<wgt id='1525'>0.22444E+02</wgt>
<wgt id='1526'>0.21484E+02</wgt>
<wgt id='1527'>0.21800E+02</wgt>
<wgt id='1528'>0.21923E+02</wgt>
<wgt id='1529'>0.21569E+02</wgt>
<wgt id='1530'>0.22393E+02</wgt>
<wgt id='1531'>0.21889E+02</wgt>
<wgt id='1532'>0.21379E+02</wgt>
<wgt id='1533'>0.22778E+02</wgt>
<wgt id='1534'>0.22202E+02</wgt>
<wgt id='1535'>0.22718E+02</wgt>
<wgt id='1536'>0.22898E+02</wgt>
<wgt id='1537'>0.22227E+02</wgt>
<wgt id='1538'>0.21720E+02</wgt>
<wgt id='1539'>0.21089E+02</wgt>
<wgt id='1540'>0.22463E+02</wgt>
<wgt id='1541'>0.21890E+02</wgt>
<wgt id='1542'>0.22479E+02</wgt>
<wgt id='1543'>0.22353E+02</wgt>
<wgt id='1544'>0.21788E+02</wgt>
<wgt id='1545'>0.22572E+02</wgt>
<wgt id='1546'>0.22115E+02</wgt>
<wgt id='1547'>0.21633E+02</wgt>
<wgt id='1548'>0.21519E+02</wgt>
<wgt id='1549'>0.22357E+02</wgt>
<wgt id='1550'>0.22149E+02</wgt>
<wgt id='1551'>0.22082E+02</wgt>
<wgt id='1552'>0.22001E+02</wgt>
<wgt id='1553'>0.22466E+02</wgt>
<wgt id='1554'>0.21969E+02</wgt>
<wgt id='1555'>0.22192E+02</wgt>
<wgt id='1556'>0.21305E+02</wgt>
<wgt id='1557'>0.23150E+02</wgt>
<wgt id='1558'>0.21873E+02</wgt>
<wgt id='1559'>0.22219E+02</wgt>
<wgt id='1560'>0.21964E+02</wgt>
<wgt id='1561'>0.22385E+02</wgt>
<wgt id='1562'>0.22015E+02</wgt>
<wgt id='1563'>0.22601E+02</wgt>
<wgt id='1564'>0.21736E+02</wgt>
<wgt id='1565'>0.22445E+02</wgt>
<wgt id='1566'>0.22096E+02</wgt>
<wgt id='1567'>0.22946E+02</wgt>
<wgt id='1568'>0.21687E+02</wgt>
<wgt id='1569'>0.21516E+02</wgt>
<wgt id='1570'>0.22211E+02</wgt>
<wgt id='1571'>0.22791E+02</wgt>
<wgt id='1572'>0.21766E+02</wgt>
<wgt id='1573'>0.20093E+02</wgt>
<wgt id='1574'>0.22183E+02</wgt>
<wgt id='1575'>0.21781E+02</wgt>
<wgt id='1576'>0.21374E+02</wgt>
<wgt id='1577'>0.22219E+02</wgt>
<wgt id='1578'>0.22991E+02</wgt>
<wgt id='1579'>0.21953E+02</wgt>
<wgt id='1580'>0.22225E+02</wgt>
<wgt id='1581'>0.22164E+02</wgt>
<wgt id='1582'>0.21801E+02</wgt>
<wgt id='1583'>0.21968E+02</wgt>
<wgt id='1584'>0.22192E+02</wgt>
<wgt id='1585'>0.21283E+02</wgt>
<wgt id='1586'>0.21982E+02</wgt>
<wgt id='1587'>0.21916E+02</wgt>
<wgt id='1588'>0.22100E+02</wgt>
<wgt id='1589'>0.22401E+02</wgt>
<wgt id='1590'>0.21904E+02</wgt>
<wgt id='1591'>0.21271E+02</wgt>
<wgt id='1592'>0.22773E+02</wgt>
<wgt id='1593'>0.21787E+02</wgt>
<wgt id='1594'>0.22591E+02</wgt>
<wgt id='1595'>0.21636E+02</wgt>
<wgt id='1596'>0.22411E+02</wgt>
<wgt id='1597'>0.22199E+02</wgt>
<wgt id='1598'>0.23154E+02</wgt>
<wgt id='1599'>0.22750E+02</wgt>
<wgt id='1600'>0.21699E+02</wgt>
<wgt id='1601'>0.21727E+02</wgt>
<wgt id='1602'>0.22080E+02</wgt>
<wgt id='1700'>0.21305E+02</wgt>
<wgt id='1800'>0.26410E+02</wgt>
<wgt id='1850'>0.30436E+02</wgt>
<wgt id='1900'>0.25553E+02</wgt>
<wgt id='1950'>0.29202E+02</wgt>
</rwgt>
</event>
<event>
      4   9999  2.16956E+01  1.01425E+01 -1.00000E+00  1.91037E-01
      21    -1     0     0   502   512  0.000000000E+00  0.000000000E+00  1.367861501E+02  1.367861501E+02  0.000000000E+00  0.00000E+00  9.000E+00
      21    -1     0     0   501   502  0.000000000E+00  0.000000000E+00 -3.887549776E+02  3.887549776E+02  0.000000000E+00  0.00000E+00  9.000E+00
      25     1     1     2     0     0 -4.478289465E+00  9.100265107E+00 -3.784321031E+02  3.986717856E+02  1.250018641E+02  0.00000E+00  9.000E+00
      21     1     1     2   501   512  4.478289465E+00 -9.100265107E+00  1.264632756E+02  1.268693421E+02  1.348699152E-06  0.00000E+00  9.000E+00
#rwgt            1           1   17.204026385478027                1          73           0
<rwgt>
<wgt id='1001'>0.21696E+02</wgt>
<wgt id='1002'>0.24124E+02</wgt>
<wgt id='1003'>0.19116E+02</wgt>
<wgt id='1004'>0.18090E+02</wgt>
<wgt id='1005'>0.19977E+02</wgt>
<wgt id='1006'>0.16059E+02</wgt>
<wgt id='1007'>0.26535E+02</wgt>
<wgt id='1008'>0.29753E+02</wgt>
<wgt id='1009'>0.23163E+02</wgt>
<wgt id='2000'>0.21696E+02</wgt>
<wgt id='2001'>0.21666E+02</wgt>
<wgt id='2002'>0.21716E+02</wgt>
<wgt id='2003'>0.21691E+02</wgt>
<wgt id='2004'>0.21712E+02</wgt>
<wgt id='2005'>0.21707E+02</wgt>
<wgt id='2006'>0.21690E+02</wgt>
<wgt id='2007'>0.21721E+02</wgt>
<wgt id='2008'>0.21744E+02</wgt>
<wgt id='2009'>0.21669E+02</wgt>
<wgt id='2010'>0.21663E+02</wgt>
<wgt id='2011'>0.21713E+02</wgt>
<wgt id='2012'>0.21713E+02</wgt>
<wgt id='2013'>0.21676E+02</wgt>
<wgt id='2014'>0.21701E+02</wgt>
<wgt id='2015'>0.21710E+02</wgt>
<wgt id='2016'>0.21722E+02</wgt>
<wgt id='2017'>0.21689E+02</wgt>
<wgt id='2018'>0.21695E+02</wgt>
<wgt id='2019'>0.21702E+02</wgt>
<wgt id='2020'>0.21732E+02</wgt>
<wgt id='2021'>0.21682E+02</wgt>
<wgt id='2022'>0.21728E+02</wgt>
<wgt id='2023'>0.21729E+02</wgt>
<wgt id='2024'>0.21674E+02</wgt>
<wgt id='2025'>0.21752E+02</wgt>
<wgt id='2026'>0.21758E+02</wgt>
<wgt id='2027'>0.21669E+02</wgt>
<wgt id='2028'>0.21647E+02</wgt>
<wgt id='2029'>0.21752E+02</wgt>
<wgt id='2030'>0.21696E+02</wgt>
<wgt id='2031'>0.21726E+02</wgt>
<wgt id='2032'>0.21666E+02</wgt>
<wgt id='2033'>0.21695E+02</wgt>
<wgt id='2034'>0.21746E+02</wgt>
<wgt id='2035'>0.21691E+02</wgt>
<wgt id='2036'>0.21711E+02</wgt>
<wgt id='2037'>0.21722E+02</wgt>
<wgt id='2038'>0.21691E+02</wgt>
<wgt id='2039'>0.21663E+02</wgt>
<wgt id='2040'>0.21704E+02</wgt>
<wgt id='2041'>0.21704E+02</wgt>
<wgt id='2042'>0.21684E+02</wgt>
<wgt id='2043'>0.21692E+02</wgt>
<wgt id='2044'>0.21713E+02</wgt>
<wgt id='2045'>0.21686E+02</wgt>
<wgt id='2046'>0.21709E+02</wgt>
<wgt id='2047'>0.21714E+02</wgt>
<wgt id='2048'>0.21683E+02</wgt>
<wgt id='2049'>0.21691E+02</wgt>
<wgt id='2050'>0.21698E+02</wgt>
<wgt id='2051'>0.21722E+02</wgt>
<wgt id='2052'>0.21702E+02</wgt>
<wgt id='2053'>0.21704E+02</wgt>
<wgt id='2054'>0.21699E+02</wgt>
<wgt id='2055'>0.21691E+02</wgt>
<wgt id='2056'>0.21697E+02</wgt>
<wgt id='2057'>0.21711E+02</wgt>
<wgt id='2058'>0.21702E+02</wgt>
<wgt id='2059'>0.21692E+02</wgt>
<wgt id='2060'>0.21697E+02</wgt>
<wgt id='2061'>0.21683E+02</wgt>
<wgt id='2062'>0.21693E+02</wgt>
<wgt id='2063'>0.21699E+02</wgt>
<wgt id='2064'>0.21687E+02</wgt>
<wgt id='2065'>0.21705E+02</wgt>
<wgt id='2066'>0.21690E+02</wgt>
<wgt id='2067'>0.21696E+02</wgt>
<wgt id='2068'>0.21701E+02</wgt>
<wgt id='2069'>0.21699E+02</wgt>
<wgt id='2070'>0.21693E+02</wgt>
<wgt id='2071'>0.21692E+02</wgt>
<wgt id='2072'>0.21697E+02</wgt>
<wgt id='2073'>0.21698E+02</wgt>
<wgt id='2074'>0.21700E+02</wgt>
<wgt id='2075'>0.21692E+02</wgt>
<wgt id='2076'>0.21696E+02</wgt>
<wgt id='2077'>0.21694E+02</wgt>
<wgt id='2078'>0.21693E+02</wgt>
<wgt id='2079'>0.21696E+02</wgt>
<wgt id='2080'>0.21699E+02</wgt>
<wgt id='2081'>0.21698E+02</wgt>
<wgt id='2082'>0.21699E+02</wgt>
<wgt id='2083'>0.21697E+02</wgt>
<wgt id='2084'>0.21698E+02</wgt>
<wgt id='2085'>0.21698E+02</wgt>
<wgt id='2086'>0.21691E+02</wgt>
<wgt id='2087'>0.21693E+02</wgt>
<wgt id='2088'>0.21697E+02</wgt>
<wgt id='2089'>0.21691E+02</wgt>
<wgt id='2090'>0.21693E+02</wgt>
<wgt id='2091'>0.21697E+02</wgt>
<wgt id='2092'>0.21696E+02</wgt>
<wgt id='2093'>0.21695E+02</wgt>
<wgt id='2094'>0.21697E+02</wgt>
<wgt id='2095'>0.21699E+02</wgt>
<wgt id='2096'>0.21694E+02</wgt>
<wgt id='2097'>0.21696E+02</wgt>
<wgt id='2098'>0.21696E+02</wgt>
<wgt id='2099'>0.21693E+02</wgt>
<wgt id='2100'>0.21698E+02</wgt>
<wgt id='2101'>0.21056E+02</wgt>
<wgt id='2102'>0.22336E+02</wgt>
<wgt id='2104'>0.18663E+02</wgt>
<wgt id='2105'>0.19233E+02</wgt>
<wgt id='2106'>0.19818E+02</wgt>
<wgt id='2107'>0.20419E+02</wgt>
<wgt id='2108'>0.21380E+02</wgt>
<wgt id='2109'>0.22015E+02</wgt>
<wgt id='2110'>0.22923E+02</wgt>
<wgt id='2111'>0.23553E+02</wgt>
<wgt id='3000'>0.22775E+02</wgt>
<wgt id='3001'>0.22797E+02</wgt>
<wgt id='3002'>0.22750E+02</wgt>
<wgt id='3003'>0.22768E+02</wgt>
<wgt id='3004'>0.22796E+02</wgt>
<wgt id='3005'>0.22757E+02</wgt>
<wgt id='3006'>0.22762E+02</wgt>
<wgt id='3007'>0.22726E+02</wgt>
<wgt id='3008'>0.22769E+02</wgt>
<wgt id='3009'>0.22692E+02</wgt>
<wgt id='3010'>0.22758E+02</wgt>
<wgt id='3011'>0.22794E+02</wgt>
<wgt id='3012'>0.22797E+02</wgt>
<wgt id='3013'>0.22775E+02</wgt>
<wgt id='3014'>0.22762E+02</wgt>
<wgt id='3015'>0.22761E+02</wgt>
<wgt id='3016'>0.22779E+02</wgt>
<wgt id='3017'>0.22765E+02</wgt>
<wgt id='3018'>0.22806E+02</wgt>
<wgt id='3019'>0.22782E+02</wgt>
<wgt id='3020'>0.22748E+02</wgt>
<wgt id='3021'>0.22740E+02</wgt>
<wgt id='3022'>0.22774E+02</wgt>
<wgt id='3023'>0.22745E+02</wgt>
<wgt id='3024'>0.22726E+02</wgt>
<wgt id='3025'>0.22787E+02</wgt>
<wgt id='3026'>0.22807E+02</wgt>
<wgt id='3027'>0.22779E+02</wgt>
<wgt id='3028'>0.22706E+02</wgt>
<wgt id='3029'>0.22729E+02</wgt>
<wgt id='3030'>0.22837E+02</wgt>
<wgt id='3031'>0.22807E+02</wgt>
<wgt id='3032'>0.22809E+02</wgt>
<wgt id='3033'>0.22829E+02</wgt>
<wgt id='3034'>0.22791E+02</wgt>
<wgt id='3035'>0.22837E+02</wgt>
<wgt id='3036'>0.22788E+02</wgt>
<wgt id='3037'>0.22771E+02</wgt>
<wgt id='3038'>0.22779E+02</wgt>
<wgt id='3039'>0.22745E+02</wgt>
<wgt id='3040'>0.22772E+02</wgt>
<wgt id='3041'>0.22798E+02</wgt>
<wgt id='3042'>0.22755E+02</wgt>
<wgt id='3043'>0.22757E+02</wgt>
<wgt id='3044'>0.22771E+02</wgt>
<wgt id='3045'>0.22790E+02</wgt>
<wgt id='3046'>0.22794E+02</wgt>
<wgt id='3047'>0.22777E+02</wgt>
<wgt id='3048'>0.22786E+02</wgt>
<wgt id='3049'>0.22774E+02</wgt>
<wgt id='3050'>0.22773E+02</wgt>
<wgt id='3051'>0.22792E+02</wgt>
<wgt id='3052'>0.22763E+02</wgt>
<wgt id='3053'>0.22765E+02</wgt>
<wgt id='3054'>0.22774E+02</wgt>
<wgt id='3055'>0.22748E+02</wgt>
<wgt id='3056'>0.22777E+02</wgt>
<wgt id='3057'>0.22766E+02</wgt>
<wgt id='3058'>0.22763E+02</wgt>
<wgt id='3059'>0.22774E+02</wgt>
<wgt id='3060'>0.22779E+02</wgt>
<wgt id='3061'>0.22772E+02</wgt>
<wgt id='3062'>0.22779E+02</wgt>
<wgt id='3063'>0.22787E+02</wgt>
<wgt id='3064'>0.22768E+02</wgt>
<wgt id='3065'>0.22774E+02</wgt>
<wgt id='3066'>0.22777E+02</wgt>
<wgt id='3067'>0.22768E+02</wgt>
<wgt id='3068'>0.22780E+02</wgt>
<wgt id='3069'>0.22775E+02</wgt>
<wgt id='3070'>0.22783E+02</wgt>
<wgt id='3071'>0.22773E+02</wgt>
<wgt id='3072'>0.22771E+02</wgt>
<wgt id='3073'>0.22764E+02</wgt>
<wgt id='3074'>0.22784E+02</wgt>
<wgt id='3075'>0.22771E+02</wgt>
<wgt id='3076'>0.22774E+02</wgt>
<wgt id='3077'>0.22781E+02</wgt>
<wgt id='3078'>0.22776E+02</wgt>
<wgt id='3079'>0.22775E+02</wgt>
<wgt id='3080'>0.22774E+02</wgt>
<wgt id='3081'>0.22777E+02</wgt>
<wgt id='3082'>0.22772E+02</wgt>
<wgt id='3083'>0.22778E+02</wgt>
<wgt id='3084'>0.22776E+02</wgt>
<wgt id='3085'>0.22775E+02</wgt>
<wgt id='3086'>0.22770E+02</wgt>
<wgt id='3087'>0.22774E+02</wgt>
<wgt id='3088'>0.22777E+02</wgt>
<wgt id='3089'>0.22775E+02</wgt>
<wgt id='3090'>0.22776E+02</wgt>
<wgt id='3091'>0.22776E+02</wgt>
<wgt id='3092'>0.22778E+02</wgt>
<wgt id='3093'>0.22776E+02</wgt>
<wgt id='3094'>0.22778E+02</wgt>
<wgt id='3095'>0.22775E+02</wgt>
<wgt id='3096'>0.22774E+02</wgt>
<wgt id='3097'>0.22773E+02</wgt>
<wgt id='3098'>0.22776E+02</wgt>
<wgt id='3099'>0.22777E+02</wgt>
<wgt id='3100'>0.22775E+02</wgt>
<wgt id='3101'>0.22068E+02</wgt>
<wgt id='3102'>0.23498E+02</wgt>
<wgt id='5000'>0.21142E+02</wgt>
<wgt id='5001'>0.21122E+02</wgt>
<wgt id='5002'>0.21096E+02</wgt>
<wgt id='5003'>0.21122E+02</wgt>
<wgt id='5004'>0.21096E+02</wgt>
<wgt id='5005'>0.21034E+02</wgt>
<wgt id='5006'>0.20976E+02</wgt>
<wgt id='5007'>0.21032E+02</wgt>
<wgt id='5008'>0.21156E+02</wgt>
<wgt id='5009'>0.21179E+02</wgt>
<wgt id='5010'>0.21108E+02</wgt>
<wgt id='5011'>0.21169E+02</wgt>
<wgt id='5012'>0.21083E+02</wgt>
<wgt id='5013'>0.21001E+02</wgt>
<wgt id='5014'>0.21204E+02</wgt>
<wgt id='5015'>0.21215E+02</wgt>
<wgt id='5016'>0.20893E+02</wgt>
<wgt id='5017'>0.21075E+02</wgt>
<wgt id='5018'>0.21216E+02</wgt>
<wgt id='5019'>0.21096E+02</wgt>
<wgt id='5020'>0.21193E+02</wgt>
<wgt id='5021'>0.21166E+02</wgt>
<wgt id='5022'>0.21125E+02</wgt>
<wgt id='5023'>0.21040E+02</wgt>
<wgt id='5024'>0.21249E+02</wgt>
<wgt id='5025'>0.21144E+02</wgt>
<wgt id='5026'>0.21140E+02</wgt>
<wgt id='5027'>0.21294E+02</wgt>
<wgt id='5028'>0.20882E+02</wgt>
<wgt id='5029'>0.20876E+02</wgt>
<wgt id='5030'>0.21299E+02</wgt>
<wgt id='5031'>0.20980E+02</wgt>
<wgt id='5032'>0.21373E+02</wgt>
<wgt id='5033'>0.21045E+02</wgt>
<wgt id='5034'>0.21224E+02</wgt>
<wgt id='5035'>0.20959E+02</wgt>
<wgt id='5036'>0.21296E+02</wgt>
<wgt id='5037'>0.20958E+02</wgt>
<wgt id='5038'>0.21344E+02</wgt>
<wgt id='5039'>0.21489E+02</wgt>
<wgt id='5040'>0.20967E+02</wgt>
<wgt id='5041'>0.21081E+02</wgt>
<wgt id='5042'>0.21130E+02</wgt>
<wgt id='5043'>0.21244E+02</wgt>
<wgt id='5044'>0.20837E+02</wgt>
<wgt id='5045'>0.21299E+02</wgt>
<wgt id='5046'>0.21072E+02</wgt>
<wgt id='5047'>0.21074E+02</wgt>
<wgt id='5048'>0.21319E+02</wgt>
<wgt id='5049'>0.21138E+02</wgt>
<wgt id='5050'>0.21186E+02</wgt>
<wgt id='5051'>0.21167E+02</wgt>
<wgt id='5052'>0.21137E+02</wgt>
<wgt id='5053'>0.20656E+02</wgt>
<wgt id='5054'>0.20923E+02</wgt>
<wgt id='5055'>0.21011E+02</wgt>
<wgt id='5056'>0.21355E+02</wgt>
<wgt id='5060'>0.20437E+02</wgt>
<wgt id='5070'>0.21844E+02</wgt>
<wgt id='4000'>0.22212E+02</wgt>
<wgt id='4001'>0.22216E+02</wgt>
<wgt id='4002'>0.22255E+02</wgt>
<wgt id='4003'>0.22111E+02</wgt>
<wgt id='4004'>0.22226E+02</wgt>
<wgt id='4005'>0.22276E+02</wgt>
<wgt id='4006'>0.22172E+02</wgt>
<wgt id='4007'>0.22218E+02</wgt>
<wgt id='4008'>0.22243E+02</wgt>
<wgt id='4009'>0.21990E+02</wgt>
<wgt id='4010'>0.22307E+02</wgt>
<wgt id='4011'>0.22441E+02</wgt>
<wgt id='4012'>0.22070E+02</wgt>
<wgt id='4013'>0.21693E+02</wgt>
<wgt id='4014'>0.22509E+02</wgt>
<wgt id='4015'>0.22485E+02</wgt>
<wgt id='4016'>0.22039E+02</wgt>
<wgt id='4017'>0.21936E+02</wgt>
<wgt id='4018'>0.22540E+02</wgt>
<wgt id='4019'>0.22392E+02</wgt>
<wgt id='4020'>0.22008E+02</wgt>
<wgt id='4021'>0.22233E+02</wgt>
<wgt id='4022'>0.22159E+02</wgt>
<wgt id='4023'>0.22176E+02</wgt>
<wgt id='4024'>0.22237E+02</wgt>
<wgt id='4025'>0.22156E+02</wgt>
<wgt id='4026'>0.22259E+02</wgt>
<wgt id='4027'>0.22186E+02</wgt>
<wgt id='4028'>0.22245E+02</wgt>
<wgt id='4029'>0.22124E+02</wgt>
<wgt id='4030'>0.22243E+02</wgt>
<wgt id='4031'>0.22246E+02</wgt>
<wgt id='4032'>0.22168E+02</wgt>
<wgt id='4033'>0.22173E+02</wgt>
<wgt id='4034'>0.22299E+02</wgt>
<wgt id='4035'>0.22312E+02</wgt>
<wgt id='4036'>0.22118E+02</wgt>
<wgt id='4037'>0.22271E+02</wgt>
<wgt id='4038'>0.22093E+02</wgt>
<wgt id='4039'>0.22161E+02</wgt>
<wgt id='4040'>0.22232E+02</wgt>
<wgt id='4041'>0.22276E+02</wgt>
<wgt id='4042'>0.22160E+02</wgt>
<wgt id='4043'>0.22188E+02</wgt>
<wgt id='4044'>0.22278E+02</wgt>
<wgt id='4045'>0.22012E+02</wgt>
<wgt id='4046'>0.22221E+02</wgt>
<wgt id='4047'>0.22175E+02</wgt>
<wgt id='4048'>0.22046E+02</wgt>
<wgt id='4049'>0.21993E+02</wgt>
<wgt id='4050'>0.22189E+02</wgt>
<wgt id='4051'>0.22179E+02</wgt>
<wgt id='4052'>0.22197E+02</wgt>
<wgt id='4053'>0.21550E+02</wgt>
<wgt id='4054'>0.22192E+02</wgt>
<wgt id='4055'>0.22113E+02</wgt>
<wgt id='4056'>0.22387E+02</wgt>
<wgt id='4060'>0.21431E+02</wgt>
<wgt id='4070'>0.22996E+02</wgt>
<wgt id='4080'>0.23349E+02</wgt>
<wgt id='6000'>0.22483E+02</wgt>
<wgt id='6001'>0.22511E+02</wgt>
<wgt id='6002'>0.22453E+02</wgt>
<wgt id='6003'>0.22495E+02</wgt>
<wgt id='6004'>0.22475E+02</wgt>
<wgt id='6005'>0.22516E+02</wgt>
<wgt id='6006'>0.22451E+02</wgt>
<wgt id='6007'>0.22410E+02</wgt>
<wgt id='6008'>0.22562E+02</wgt>
<wgt id='6009'>0.22574E+02</wgt>
<wgt id='6010'>0.22394E+02</wgt>
<wgt id='6011'>0.22532E+02</wgt>
<wgt id='6012'>0.22377E+02</wgt>
<wgt id='6013'>0.22456E+02</wgt>
<wgt id='6014'>0.22530E+02</wgt>
<wgt id='6015'>0.22424E+02</wgt>
<wgt id='6016'>0.22516E+02</wgt>
<wgt id='6017'>0.22351E+02</wgt>
<wgt id='6018'>0.22640E+02</wgt>
<wgt id='6019'>0.22488E+02</wgt>
<wgt id='6020'>0.22478E+02</wgt>
<wgt id='6021'>0.22437E+02</wgt>
<wgt id='6022'>0.22545E+02</wgt>
<wgt id='6023'>0.22332E+02</wgt>
<wgt id='6024'>0.22590E+02</wgt>
<wgt id='6025'>0.22468E+02</wgt>
<wgt id='6026'>0.22424E+02</wgt>
<wgt id='6027'>0.22544E+02</wgt>
<wgt id='6028'>0.22482E+02</wgt>
<wgt id='6029'>0.22527E+02</wgt>
<wgt id='6030'>0.22430E+02</wgt>
<wgt id='6031'>0.22432E+02</wgt>
<wgt id='6032'>0.22528E+02</wgt>
<wgt id='6033'>0.22538E+02</wgt>
<wgt id='6034'>0.22426E+02</wgt>
<wgt id='6035'>0.22494E+02</wgt>
<wgt id='6036'>0.22495E+02</wgt>
<wgt id='6037'>0.22520E+02</wgt>
<wgt id='6038'>0.22484E+02</wgt>
<wgt id='6039'>0.22445E+02</wgt>
<wgt id='6040'>0.22525E+02</wgt>
<wgt id='6041'>0.22429E+02</wgt>
<wgt id='6042'>0.22548E+02</wgt>
<wgt id='6043'>0.22771E+02</wgt>
<wgt id='6044'>0.22376E+02</wgt>
<wgt id='6045'>0.22465E+02</wgt>
<wgt id='6046'>0.22531E+02</wgt>
<wgt id='6047'>0.22616E+02</wgt>
<wgt id='6048'>0.22265E+02</wgt>
<wgt id='6049'>0.22544E+02</wgt>
<wgt id='6050'>0.22450E+02</wgt>
<wgt id='7000'>0.21135E+02</wgt>
<wgt id='7001'>0.21153E+02</wgt>
<wgt id='7002'>0.21116E+02</wgt>
<wgt id='7003'>0.21191E+02</wgt>
<wgt id='7004'>0.21080E+02</wgt>
<wgt id='7005'>0.21170E+02</wgt>
<wgt id='7006'>0.21123E+02</wgt>
<wgt id='7007'>0.21061E+02</wgt>
<wgt id='7008'>0.21210E+02</wgt>
<wgt id='7009'>0.21179E+02</wgt>
<wgt id='7010'>0.21094E+02</wgt>
<wgt id='7011'>0.20928E+02</wgt>
<wgt id='7012'>0.21226E+02</wgt>
<wgt id='7013'>0.21134E+02</wgt>
<wgt id='7014'>0.21138E+02</wgt>
<wgt id='7015'>0.21074E+02</wgt>
<wgt id='7016'>0.21202E+02</wgt>
<wgt id='7017'>0.21003E+02</wgt>
<wgt id='7018'>0.21207E+02</wgt>
<wgt id='7019'>0.21117E+02</wgt>
<wgt id='7020'>0.21163E+02</wgt>
<wgt id='7021'>0.21132E+02</wgt>
<wgt id='7022'>0.21138E+02</wgt>
<wgt id='7023'>0.21250E+02</wgt>
<wgt id='7024'>0.21010E+02</wgt>
<wgt id='7025'>0.21193E+02</wgt>
<wgt id='7026'>0.20998E+02</wgt>
<wgt id='7027'>0.21206E+02</wgt>
<wgt id='7028'>0.21117E+02</wgt>
<wgt id='7029'>0.21111E+02</wgt>
<wgt id='7030'>0.21182E+02</wgt>
<wgt id='7031'>0.21109E+02</wgt>
<wgt id='7032'>0.21197E+02</wgt>
<wgt id='7033'>0.21133E+02</wgt>
<wgt id='7034'>0.21156E+02</wgt>
<wgt id='7035'>0.21125E+02</wgt>
<wgt id='7036'>0.21153E+02</wgt>
<wgt id='7037'>0.21139E+02</wgt>
<wgt id='7038'>0.21152E+02</wgt>
<wgt id='7039'>0.21091E+02</wgt>
<wgt id='7040'>0.21168E+02</wgt>
<wgt id='7041'>0.21113E+02</wgt>
<wgt id='7042'>0.21165E+02</wgt>
<wgt id='7043'>0.21151E+02</wgt>
<wgt id='7044'>0.21048E+02</wgt>
<wgt id='7045'>0.20960E+02</wgt>
<wgt id='7046'>0.21262E+02</wgt>
<wgt id='7047'>0.21205E+02</wgt>
<wgt id='7048'>0.21107E+02</wgt>
<wgt id='7049'>0.21085E+02</wgt>
<wgt id='7050'>0.21183E+02</wgt>
<wgt id='7060'>0.34580E+02</wgt>
<wgt id='8000'>0.21364E+02</wgt>
<wgt id='8001'>0.21358E+02</wgt>
<wgt id='8002'>0.21370E+02</wgt>
<wgt id='8003'>0.21365E+02</wgt>
<wgt id='8004'>0.21364E+02</wgt>
<wgt id='8005'>0.21315E+02</wgt>
<wgt id='8006'>0.21360E+02</wgt>
<wgt id='8007'>0.21351E+02</wgt>
<wgt id='8008'>0.21404E+02</wgt>
<wgt id='8009'>0.21445E+02</wgt>
<wgt id='8010'>0.21361E+02</wgt>
<wgt id='8011'>0.21357E+02</wgt>
<wgt id='8012'>0.21330E+02</wgt>
<wgt id='8013'>0.21350E+02</wgt>
<wgt id='8014'>0.21370E+02</wgt>
<wgt id='8015'>0.21347E+02</wgt>
<wgt id='8016'>0.21378E+02</wgt>
<wgt id='8017'>0.21371E+02</wgt>
<wgt id='8018'>0.21382E+02</wgt>
<wgt id='8019'>0.21381E+02</wgt>
<wgt id='8020'>0.21330E+02</wgt>
<wgt id='8021'>0.21358E+02</wgt>
<wgt id='8022'>0.21303E+02</wgt>
<wgt id='8023'>0.21362E+02</wgt>
<wgt id='8024'>0.21359E+02</wgt>
<wgt id='8025'>0.21392E+02</wgt>
<wgt id='8026'>0.21397E+02</wgt>
<wgt id='8027'>0.21348E+02</wgt>
<wgt id='8028'>0.21384E+02</wgt>
<wgt id='8029'>0.21266E+02</wgt>
<wgt id='8500'>0.22394E+02</wgt>
<wgt id='8501'>0.22299E+02</wgt>
<wgt id='8502'>0.22449E+02</wgt>
<wgt id='8503'>0.22464E+02</wgt>
<wgt id='8504'>0.22351E+02</wgt>
<wgt id='8505'>0.22402E+02</wgt>
<wgt id='8506'>0.22404E+02</wgt>
<wgt id='8507'>0.22428E+02</wgt>
<wgt id='8508'>0.22394E+02</wgt>
<wgt id='8509'>0.22426E+02</wgt>
<wgt id='8510'>0.22632E+02</wgt>
<wgt id='8511'>0.22405E+02</wgt>
<wgt id='8512'>0.22308E+02</wgt>
<wgt id='8513'>0.22379E+02</wgt>
<wgt id='8514'>0.22182E+02</wgt>
<wgt id='8515'>0.22486E+02</wgt>
<wgt id='8516'>0.22406E+02</wgt>
<wgt id='8517'>0.22299E+02</wgt>
<wgt id='8518'>0.22292E+02</wgt>
<wgt id='8519'>0.22294E+02</wgt>
<wgt id='8520'>0.22386E+02</wgt>
<wgt id='8521'>0.22290E+02</wgt>
<wgt id='8522'>0.22429E+02</wgt>
<wgt id='8523'>0.22327E+02</wgt>
<wgt id='8524'>0.22391E+02</wgt>
<wgt id='8525'>0.22363E+02</wgt>
<wgt id='8526'>0.22339E+02</wgt>
<wgt id='8527'>0.22389E+02</wgt>
<wgt id='8528'>0.22330E+02</wgt>
<wgt id='8529'>0.22363E+02</wgt>
<wgt id='8530'>0.22409E+02</wgt>
<wgt id='8531'>0.22385E+02</wgt>
<wgt id='8532'>0.22395E+02</wgt>
<wgt id='8533'>0.22332E+02</wgt>
<wgt id='8534'>0.22392E+02</wgt>
<wgt id='8535'>0.22456E+02</wgt>
<wgt id='8536'>0.22380E+02</wgt>
<wgt id='8537'>0.22400E+02</wgt>
<wgt id='8538'>0.22381E+02</wgt>
<wgt id='8539'>0.22399E+02</wgt>
<wgt id='8540'>0.22396E+02</wgt>
<wgt id='8541'>0.22408E+02</wgt>
<wgt id='8542'>0.22407E+02</wgt>
<wgt id='8543'>0.22372E+02</wgt>
<wgt id='8544'>0.22412E+02</wgt>
<wgt id='8545'>0.22412E+02</wgt>
<wgt id='8546'>0.22425E+02</wgt>
<wgt id='8547'>0.22370E+02</wgt>
<wgt id='8548'>0.22377E+02</wgt>
<wgt id='8549'>0.22394E+02</wgt>
<wgt id='8550'>0.22395E+02</wgt>
<wgt id='8551'>0.22378E+02</wgt>
<wgt id='8552'>0.22393E+02</wgt>
<wgt id='8553'>0.22379E+02</wgt>
<wgt id='8554'>0.22386E+02</wgt>
<wgt id='8555'>0.22396E+02</wgt>
<wgt id='8556'>0.22388E+02</wgt>
<wgt id='8557'>0.22392E+02</wgt>
<wgt id='8558'>0.22422E+02</wgt>
<wgt id='8559'>0.22382E+02</wgt>
<wgt id='8560'>0.22365E+02</wgt>
<wgt id='8561'>0.22394E+02</wgt>
<wgt id='8562'>0.22376E+02</wgt>
<wgt id='8563'>0.22396E+02</wgt>
<wgt id='8564'>0.22387E+02</wgt>
<wgt id='8565'>0.22396E+02</wgt>
<wgt id='8566'>0.22388E+02</wgt>
<wgt id='8567'>0.22389E+02</wgt>
<wgt id='8568'>0.22405E+02</wgt>
<wgt id='8569'>0.22402E+02</wgt>
<wgt id='8570'>0.22396E+02</wgt>
<wgt id='8571'>0.22379E+02</wgt>
<wgt id='8572'>0.22382E+02</wgt>
<wgt id='8573'>0.22386E+02</wgt>
<wgt id='8574'>0.22399E+02</wgt>
<wgt id='8575'>0.22390E+02</wgt>
<wgt id='8576'>0.22390E+02</wgt>
<wgt id='8577'>0.22394E+02</wgt>
<wgt id='8578'>0.22394E+02</wgt>
<wgt id='8579'>0.22408E+02</wgt>
<wgt id='8580'>0.22394E+02</wgt>
<wgt id='8581'>0.22403E+02</wgt>
<wgt id='8582'>0.22375E+02</wgt>
<wgt id='8583'>0.22404E+02</wgt>
<wgt id='8584'>0.22400E+02</wgt>
<wgt id='8585'>0.22401E+02</wgt>
<wgt id='8586'>0.22404E+02</wgt>
<wgt id='8587'>0.22390E+02</wgt>
<wgt id='8588'>0.22388E+02</wgt>
<wgt id='8589'>0.22394E+02</wgt>
<wgt id='8590'>0.22393E+02</wgt>
<wgt id='8591'>0.22392E+02</wgt>
<wgt id='8592'>0.22393E+02</wgt>
<wgt id='8593'>0.22385E+02</wgt>
<wgt id='8594'>0.22398E+02</wgt>
<wgt id='8595'>0.22398E+02</wgt>
<wgt id='8596'>0.22390E+02</wgt>
<wgt id='8597'>0.22395E+02</wgt>
<wgt id='8598'>0.22399E+02</wgt>
<wgt id='8599'>0.22396E+02</wgt>
<wgt id='8600'>0.22394E+02</wgt>
<wgt id='8601'>0.21878E+02</wgt>
<wgt id='8602'>0.22890E+02</wgt>
<wgt id='9000'>0.21200E+02</wgt>
<wgt id='9001'>0.21223E+02</wgt>
<wgt id='9002'>0.21242E+02</wgt>
<wgt id='9003'>0.21127E+02</wgt>
<wgt id='9004'>0.21206E+02</wgt>
<wgt id='9005'>0.21213E+02</wgt>
<wgt id='9006'>0.21230E+02</wgt>
<wgt id='9007'>0.21281E+02</wgt>
<wgt id='9008'>0.21248E+02</wgt>
<wgt id='9009'>0.21182E+02</wgt>
<wgt id='9010'>0.21140E+02</wgt>
<wgt id='9011'>0.21334E+02</wgt>
<wgt id='9012'>0.21124E+02</wgt>
<wgt id='9013'>0.21044E+02</wgt>
<wgt id='9014'>0.21158E+02</wgt>
<wgt id='9015'>0.21206E+02</wgt>
<wgt id='9016'>0.21359E+02</wgt>
<wgt id='9017'>0.21103E+02</wgt>
<wgt id='9018'>0.21176E+02</wgt>
<wgt id='9019'>0.21191E+02</wgt>
<wgt id='9020'>0.21326E+02</wgt>
<wgt id='9021'>0.21210E+02</wgt>
<wgt id='9022'>0.21242E+02</wgt>
<wgt id='9023'>0.21105E+02</wgt>
<wgt id='9024'>0.21155E+02</wgt>
<wgt id='9025'>0.21235E+02</wgt>
<wgt id='9026'>0.21207E+02</wgt>
<wgt id='9027'>0.21178E+02</wgt>
<wgt id='9028'>0.21218E+02</wgt>
<wgt id='9029'>0.21231E+02</wgt>
<wgt id='9030'>0.21231E+02</wgt>
<wgt id='9031'>0.21173E+02</wgt>
<wgt id='9032'>0.21217E+02</wgt>
<wgt id='9033'>0.21229E+02</wgt>
<wgt id='9034'>0.21203E+02</wgt>
<wgt id='9035'>0.21238E+02</wgt>
<wgt id='9036'>0.21207E+02</wgt>
<wgt id='9037'>0.21218E+02</wgt>
<wgt id='9038'>0.21209E+02</wgt>
<wgt id='9039'>0.21206E+02</wgt>
<wgt id='9040'>0.21179E+02</wgt>
<wgt id='9041'>0.21197E+02</wgt>
<wgt id='9042'>0.21200E+02</wgt>
<wgt id='9043'>0.21171E+02</wgt>
<wgt id='9044'>0.21206E+02</wgt>
<wgt id='9045'>0.21201E+02</wgt>
<wgt id='9046'>0.21170E+02</wgt>
<wgt id='9047'>0.21201E+02</wgt>
<wgt id='9048'>0.21205E+02</wgt>
<wgt id='9049'>0.21190E+02</wgt>
<wgt id='9050'>0.21200E+02</wgt>
<wgt id='9051'>0.21214E+02</wgt>
<wgt id='9052'>0.21211E+02</wgt>
<wgt id='9053'>0.21202E+02</wgt>
<wgt id='9054'>0.21190E+02</wgt>
<wgt id='9055'>0.21191E+02</wgt>
<wgt id='9056'>0.21221E+02</wgt>
<wgt id='9057'>0.21201E+02</wgt>
<wgt id='9058'>0.21178E+02</wgt>
<wgt id='9059'>0.21189E+02</wgt>
<wgt id='9060'>0.21191E+02</wgt>
<wgt id='9061'>0.21201E+02</wgt>
<wgt id='9062'>0.21205E+02</wgt>
<wgt id='9063'>0.21210E+02</wgt>
<wgt id='9064'>0.21195E+02</wgt>
<wgt id='9065'>0.21199E+02</wgt>
<wgt id='9066'>0.21202E+02</wgt>
<wgt id='9067'>0.21209E+02</wgt>
<wgt id='9068'>0.21204E+02</wgt>
<wgt id='9069'>0.21217E+02</wgt>
<wgt id='9070'>0.21197E+02</wgt>
<wgt id='9071'>0.21213E+02</wgt>
<wgt id='9072'>0.21216E+02</wgt>
<wgt id='9073'>0.21196E+02</wgt>
<wgt id='9074'>0.21203E+02</wgt>
<wgt id='9075'>0.21199E+02</wgt>
<wgt id='9076'>0.21196E+02</wgt>
<wgt id='9077'>0.21205E+02</wgt>
<wgt id='9078'>0.21200E+02</wgt>
<wgt id='9079'>0.21198E+02</wgt>
<wgt id='9080'>0.21219E+02</wgt>
<wgt id='9081'>0.21197E+02</wgt>
<wgt id='9082'>0.21205E+02</wgt>
<wgt id='9083'>0.21193E+02</wgt>
<wgt id='9084'>0.21194E+02</wgt>
<wgt id='9085'>0.21192E+02</wgt>
<wgt id='9086'>0.21201E+02</wgt>
<wgt id='9087'>0.21186E+02</wgt>
<wgt id='9088'>0.21196E+02</wgt>
<wgt id='9089'>0.21196E+02</wgt>
<wgt id='9090'>0.21205E+02</wgt>
<wgt id='9091'>0.21199E+02</wgt>
<wgt id='9092'>0.21201E+02</wgt>
<wgt id='9093'>0.21196E+02</wgt>
<wgt id='9094'>0.21200E+02</wgt>
<wgt id='9095'>0.21203E+02</wgt>
<wgt id='9096'>0.21195E+02</wgt>
<wgt id='9097'>0.21202E+02</wgt>
<wgt id='9098'>0.21201E+02</wgt>
<wgt id='9099'>0.21195E+02</wgt>
<wgt id='9100'>0.21200E+02</wgt>
<wgt id='9101'>0.20780E+02</wgt>
<wgt id='9102'>0.21636E+02</wgt>
<wgt id='10000'>0.22395E+02</wgt>
<wgt id='10001'>0.22468E+02</wgt>
<wgt id='10002'>0.22261E+02</wgt>
<wgt id='10003'>0.22385E+02</wgt>
<wgt id='10004'>0.22253E+02</wgt>
<wgt id='10005'>0.22643E+02</wgt>
<wgt id='10006'>0.22331E+02</wgt>
<wgt id='10007'>0.22382E+02</wgt>
<wgt id='10008'>0.22461E+02</wgt>
<wgt id='10009'>0.22337E+02</wgt>
<wgt id='10010'>0.22439E+02</wgt>
<wgt id='10011'>0.22352E+02</wgt>
<wgt id='10012'>0.22358E+02</wgt>
<wgt id='10013'>0.22403E+02</wgt>
<wgt id='10014'>0.22376E+02</wgt>
<wgt id='10015'>0.22417E+02</wgt>
<wgt id='10016'>0.22351E+02</wgt>
<wgt id='10017'>0.22283E+02</wgt>
<wgt id='10018'>0.22433E+02</wgt>
<wgt id='10019'>0.22359E+02</wgt>
<wgt id='10020'>0.22353E+02</wgt>
<wgt id='10021'>0.22379E+02</wgt>
<wgt id='10022'>0.22370E+02</wgt>
<wgt id='10023'>0.22406E+02</wgt>
<wgt id='10024'>0.22368E+02</wgt>
<wgt id='10025'>0.22375E+02</wgt>
<wgt id='10026'>0.22465E+02</wgt>
<wgt id='10027'>0.22446E+02</wgt>
<wgt id='10028'>0.22621E+02</wgt>
<wgt id='10029'>0.22421E+02</wgt>
<wgt id='10030'>0.22385E+02</wgt>
<wgt id='10031'>0.21878E+02</wgt>
<wgt id='10032'>0.22890E+02</wgt>
<wgt id='11000'>0.21201E+02</wgt>
<wgt id='11001'>0.20995E+02</wgt>
<wgt id='11002'>0.21237E+02</wgt>
<wgt id='11003'>0.21178E+02</wgt>
<wgt id='11004'>0.21234E+02</wgt>
<wgt id='11005'>0.21064E+02</wgt>
<wgt id='11006'>0.21208E+02</wgt>
<wgt id='11007'>0.21164E+02</wgt>
<wgt id='11008'>0.21155E+02</wgt>
<wgt id='11009'>0.21148E+02</wgt>
<wgt id='11010'>0.21360E+02</wgt>
<wgt id='11011'>0.21150E+02</wgt>
<wgt id='11012'>0.21205E+02</wgt>
<wgt id='11013'>0.21243E+02</wgt>
<wgt id='11014'>0.21173E+02</wgt>
<wgt id='11015'>0.21187E+02</wgt>
<wgt id='11016'>0.21192E+02</wgt>
<wgt id='11017'>0.21287E+02</wgt>
<wgt id='11018'>0.21193E+02</wgt>
<wgt id='11019'>0.21194E+02</wgt>
<wgt id='11020'>0.21237E+02</wgt>
<wgt id='11021'>0.21227E+02</wgt>
<wgt id='11022'>0.21395E+02</wgt>
<wgt id='11023'>0.21205E+02</wgt>
<wgt id='11024'>0.21220E+02</wgt>
<wgt id='11025'>0.21186E+02</wgt>
<wgt id='11026'>0.21205E+02</wgt>
<wgt id='11027'>0.21201E+02</wgt>
<wgt id='11028'>0.21219E+02</wgt>
<wgt id='11029'>0.21218E+02</wgt>
<wgt id='11030'>0.21198E+02</wgt>
<wgt id='11031'>0.20780E+02</wgt>
<wgt id='11032'>0.21636E+02</wgt>
<wgt id='12000'>0.22896E+02</wgt>
<wgt id='12001'>0.22867E+02</wgt>
<wgt id='12002'>0.22924E+02</wgt>
<wgt id='12003'>0.22949E+02</wgt>
<wgt id='12004'>0.22842E+02</wgt>
<wgt id='12005'>0.22924E+02</wgt>
<wgt id='12006'>0.22867E+02</wgt>
<wgt id='12007'>0.22953E+02</wgt>
<wgt id='12008'>0.22840E+02</wgt>
<wgt id='12009'>0.22911E+02</wgt>
<wgt id='12010'>0.22881E+02</wgt>
<wgt id='12011'>0.22800E+02</wgt>
<wgt id='12012'>0.22992E+02</wgt>
<wgt id='12013'>0.22827E+02</wgt>
<wgt id='12014'>0.22965E+02</wgt>
<wgt id='12015'>0.22930E+02</wgt>
<wgt id='12016'>0.22861E+02</wgt>
<wgt id='12017'>0.22974E+02</wgt>
<wgt id='12018'>0.22812E+02</wgt>
<wgt id='12019'>0.22884E+02</wgt>
<wgt id='12020'>0.22906E+02</wgt>
<wgt id='12021'>0.22957E+02</wgt>
<wgt id='12022'>0.22814E+02</wgt>
<wgt id='12023'>0.22740E+02</wgt>
<wgt id='12024'>0.22957E+02</wgt>
<wgt id='12025'>0.22866E+02</wgt>
<wgt id='12026'>0.22954E+02</wgt>
<wgt id='12027'>0.23027E+02</wgt>
<wgt id='12028'>0.22788E+02</wgt>
<wgt id='12050'>0.22896E+02</wgt>
<wgt id='12051'>0.22913E+02</wgt>
<wgt id='12052'>0.22855E+02</wgt>
<wgt id='12053'>0.22908E+02</wgt>
<wgt id='12054'>0.22869E+02</wgt>
<wgt id='12055'>0.22955E+02</wgt>
<wgt id='12056'>0.22914E+02</wgt>
<wgt id='12057'>0.22844E+02</wgt>
<wgt id='12058'>0.22952E+02</wgt>
<wgt id='12059'>0.22899E+02</wgt>
<wgt id='12060'>0.22903E+02</wgt>
<wgt id='12061'>0.22837E+02</wgt>
<wgt id='12062'>0.22935E+02</wgt>
<wgt id='12063'>0.22789E+02</wgt>
<wgt id='13000'>0.21661E+02</wgt>
<wgt id='13001'>0.21645E+02</wgt>
<wgt id='13002'>0.21675E+02</wgt>
<wgt id='13003'>0.21692E+02</wgt>
<wgt id='13004'>0.21627E+02</wgt>
<wgt id='13005'>0.21705E+02</wgt>
<wgt id='13006'>0.21615E+02</wgt>
<wgt id='13007'>0.21745E+02</wgt>
<wgt id='13008'>0.21576E+02</wgt>
<wgt id='13009'>0.21628E+02</wgt>
<wgt id='13010'>0.21692E+02</wgt>
<wgt id='13011'>0.21720E+02</wgt>
<wgt id='13012'>0.21600E+02</wgt>
<wgt id='13013'>0.21611E+02</wgt>
<wgt id='13014'>0.21709E+02</wgt>
<wgt id='13015'>0.21659E+02</wgt>
<wgt id='13016'>0.21664E+02</wgt>
<wgt id='13017'>0.21647E+02</wgt>
<wgt id='13018'>0.21670E+02</wgt>
<wgt id='13019'>0.21642E+02</wgt>
<wgt id='13020'>0.21677E+02</wgt>
<wgt id='13021'>0.21598E+02</wgt>
<wgt id='13022'>0.21696E+02</wgt>
<wgt id='13023'>0.21591E+02</wgt>
<wgt id='13024'>0.21726E+02</wgt>
<wgt id='13025'>0.21498E+02</wgt>
<wgt id='13026'>0.21774E+02</wgt>
<wgt id='13027'>0.21612E+02</wgt>
<wgt id='13028'>0.21730E+02</wgt>
<wgt id='13050'>0.21661E+02</wgt>
<wgt id='13051'>0.21679E+02</wgt>
<wgt id='13052'>0.21569E+02</wgt>
<wgt id='13053'>0.21669E+02</wgt>
<wgt id='13054'>0.21648E+02</wgt>
<wgt id='13055'>0.21450E+02</wgt>
<wgt id='13056'>0.21693E+02</wgt>
<wgt id='13057'>0.21607E+02</wgt>
<wgt id='13058'>0.21757E+02</wgt>
<wgt id='13059'>0.21623E+02</wgt>
<wgt id='13060'>0.21438E+02</wgt>
<wgt id='13061'>0.21605E+02</wgt>
<wgt id='13062'>0.21815E+02</wgt>
<wgt id='13063'>0.21674E+02</wgt>
<wgt id='14000'>0.22109E+02</wgt>
<wgt id='14001'>0.22106E+02</wgt>
<wgt id='14002'>0.22102E+02</wgt>
<wgt id='14003'>0.22099E+02</wgt>
<wgt id='14004'>0.22096E+02</wgt>
<wgt id='14005'>0.22093E+02</wgt>
<wgt id='14006'>0.22089E+02</wgt>
<wgt id='14007'>0.22086E+02</wgt>
<wgt id='14008'>0.22083E+02</wgt>
<wgt id='14009'>0.22079E+02</wgt>
<wgt id='14010'>0.22076E+02</wgt>
<wgt id='14011'>0.22073E+02</wgt>
<wgt id='14012'>0.22069E+02</wgt>
<wgt id='14013'>0.22066E+02</wgt>
<wgt id='14014'>0.22063E+02</wgt>
<wgt id='14015'>0.22060E+02</wgt>
<wgt id='14016'>0.22056E+02</wgt>
<wgt id='14017'>0.22053E+02</wgt>
<wgt id='14018'>0.22050E+02</wgt>
<wgt id='14019'>0.22047E+02</wgt>
<wgt id='14020'>0.22043E+02</wgt>
<wgt id='14021'>0.22040E+02</wgt>
<wgt id='14022'>0.22037E+02</wgt>
<wgt id='14023'>0.22033E+02</wgt>
<wgt id='14024'>0.22030E+02</wgt>
<wgt id='14025'>0.22027E+02</wgt>
<wgt id='14026'>0.22023E+02</wgt>
<wgt id='14027'>0.22020E+02</wgt>
<wgt id='14028'>0.22017E+02</wgt>
<wgt id='14029'>0.22014E+02</wgt>
<wgt id='14030'>0.22010E+02</wgt>
<wgt id='15000'>0.20954E+02</wgt>
<wgt id='15001'>0.20963E+02</wgt>
<wgt id='15002'>0.20990E+02</wgt>
<wgt id='15003'>0.20885E+02</wgt>
<wgt id='15004'>0.20957E+02</wgt>
<wgt id='15005'>0.20967E+02</wgt>
<wgt id='15006'>0.20994E+02</wgt>
<wgt id='15007'>0.21042E+02</wgt>
<wgt id='15008'>0.21001E+02</wgt>
<wgt id='15009'>0.20938E+02</wgt>
<wgt id='15010'>0.20894E+02</wgt>
<wgt id='15011'>0.21100E+02</wgt>
<wgt id='15012'>0.20884E+02</wgt>
<wgt id='15013'>0.20806E+02</wgt>
<wgt id='15014'>0.20905E+02</wgt>
<wgt id='15015'>0.20936E+02</wgt>
<wgt id='15016'>0.21125E+02</wgt>
<wgt id='15017'>0.20854E+02</wgt>
<wgt id='15018'>0.20927E+02</wgt>
<wgt id='15019'>0.20953E+02</wgt>
<wgt id='15020'>0.21090E+02</wgt>
<wgt id='15021'>0.20954E+02</wgt>
<wgt id='15022'>0.20994E+02</wgt>
<wgt id='15023'>0.20864E+02</wgt>
<wgt id='15024'>0.20903E+02</wgt>
<wgt id='15025'>0.20979E+02</wgt>
<wgt id='15026'>0.20950E+02</wgt>
<wgt id='15027'>0.20942E+02</wgt>
<wgt id='15028'>0.20977E+02</wgt>
<wgt id='15029'>0.20979E+02</wgt>
<wgt id='15030'>0.20977E+02</wgt>
<wgt id='15031'>0.20940E+02</wgt>
<wgt id='15032'>0.20968E+02</wgt>
<wgt id='15033'>0.20979E+02</wgt>
<wgt id='15034'>0.20955E+02</wgt>
<wgt id='15035'>0.20988E+02</wgt>
<wgt id='15036'>0.20961E+02</wgt>
<wgt id='15037'>0.20972E+02</wgt>
<wgt id='15038'>0.20961E+02</wgt>
<wgt id='15039'>0.20956E+02</wgt>
<wgt id='15040'>0.20933E+02</wgt>
<wgt id='15041'>0.20947E+02</wgt>
<wgt id='15042'>0.20952E+02</wgt>
<wgt id='15043'>0.20933E+02</wgt>
<wgt id='15044'>0.20958E+02</wgt>
<wgt id='15045'>0.20953E+02</wgt>
<wgt id='15046'>0.20927E+02</wgt>
<wgt id='15047'>0.20952E+02</wgt>
<wgt id='15048'>0.20961E+02</wgt>
<wgt id='15049'>0.20942E+02</wgt>
<wgt id='15050'>0.20955E+02</wgt>
<wgt id='15051'>0.20966E+02</wgt>
<wgt id='15052'>0.20964E+02</wgt>
<wgt id='15053'>0.20956E+02</wgt>
<wgt id='15054'>0.20946E+02</wgt>
<wgt id='15055'>0.20946E+02</wgt>
<wgt id='15056'>0.20970E+02</wgt>
<wgt id='15057'>0.20954E+02</wgt>
<wgt id='15058'>0.20936E+02</wgt>
<wgt id='15059'>0.20944E+02</wgt>
<wgt id='15060'>0.20947E+02</wgt>
<wgt id='15061'>0.20956E+02</wgt>
<wgt id='15062'>0.20957E+02</wgt>
<wgt id='15063'>0.20962E+02</wgt>
<wgt id='15064'>0.20950E+02</wgt>
<wgt id='15065'>0.20952E+02</wgt>
<wgt id='15066'>0.20955E+02</wgt>
<wgt id='15067'>0.20961E+02</wgt>
<wgt id='15068'>0.20958E+02</wgt>
<wgt id='15069'>0.20968E+02</wgt>
<wgt id='15070'>0.20950E+02</wgt>
<wgt id='15071'>0.20967E+02</wgt>
<wgt id='15072'>0.20969E+02</wgt>
<wgt id='15073'>0.20948E+02</wgt>
<wgt id='15074'>0.20957E+02</wgt>
<wgt id='15075'>0.20952E+02</wgt>
<wgt id='15076'>0.20952E+02</wgt>
<wgt id='15077'>0.20959E+02</wgt>
<wgt id='15078'>0.20956E+02</wgt>
<wgt id='15079'>0.20951E+02</wgt>
<wgt id='15080'>0.20970E+02</wgt>
<wgt id='15081'>0.20952E+02</wgt>
<wgt id='15082'>0.20960E+02</wgt>
<wgt id='15083'>0.20947E+02</wgt>
<wgt id='15084'>0.20947E+02</wgt>
<wgt id='15085'>0.20947E+02</wgt>
<wgt id='15086'>0.20958E+02</wgt>
<wgt id='15087'>0.20939E+02</wgt>
<wgt id='15088'>0.20948E+02</wgt>
<wgt id='15089'>0.20948E+02</wgt>
<wgt id='15090'>0.20958E+02</wgt>
<wgt id='15091'>0.20951E+02</wgt>
<wgt id='15092'>0.20953E+02</wgt>
<wgt id='15093'>0.20950E+02</wgt>
<wgt id='15094'>0.20952E+02</wgt>
<wgt id='15095'>0.20956E+02</wgt>
<wgt id='15096'>0.20949E+02</wgt>
<wgt id='15097'>0.20955E+02</wgt>
<wgt id='15098'>0.20954E+02</wgt>
<wgt id='15099'>0.20949E+02</wgt>
<wgt id='15100'>0.20954E+02</wgt>
<wgt id='15101'>0.20954E+02</wgt>
<wgt id='15102'>0.20952E+02</wgt>
<wgt id='15103'>0.20954E+02</wgt>
<wgt id='15104'>0.20954E+02</wgt>
<wgt id='15105'>0.20955E+02</wgt>
<wgt id='15106'>0.20954E+02</wgt>
<wgt id='15107'>0.20953E+02</wgt>
<wgt id='1500'>0.22543E+02</wgt>
<wgt id='1501'>0.21484E+02</wgt>
<wgt id='1502'>0.22475E+02</wgt>
<wgt id='1503'>0.22871E+02</wgt>
<wgt id='1504'>0.22116E+02</wgt>
<wgt id='1505'>0.21289E+02</wgt>
<wgt id='1506'>0.23046E+02</wgt>
<wgt id='1507'>0.22554E+02</wgt>
<wgt id='1508'>0.22567E+02</wgt>
<wgt id='1509'>0.22870E+02</wgt>
<wgt id='1510'>0.22215E+02</wgt>
<wgt id='1511'>0.22002E+02</wgt>
<wgt id='1512'>0.22864E+02</wgt>
<wgt id='1513'>0.22810E+02</wgt>
<wgt id='1514'>0.22525E+02</wgt>
<wgt id='1515'>0.23049E+02</wgt>
<wgt id='1516'>0.22677E+02</wgt>
<wgt id='1517'>0.22569E+02</wgt>
<wgt id='1518'>0.22456E+02</wgt>
<wgt id='1519'>0.22774E+02</wgt>
<wgt id='1520'>0.23136E+02</wgt>
<wgt id='1521'>0.22867E+02</wgt>
<wgt id='1522'>0.22392E+02</wgt>
<wgt id='1523'>0.24014E+02</wgt>
<wgt id='1524'>0.22610E+02</wgt>
<wgt id='1525'>0.22476E+02</wgt>
<wgt id='1526'>0.22463E+02</wgt>
<wgt id='1527'>0.22304E+02</wgt>
<wgt id='1528'>0.22388E+02</wgt>
<wgt id='1529'>0.22789E+02</wgt>
<wgt id='1530'>0.23144E+02</wgt>
<wgt id='1531'>0.22492E+02</wgt>
<wgt id='1532'>0.22117E+02</wgt>
<wgt id='1533'>0.22182E+02</wgt>
<wgt id='1534'>0.22673E+02</wgt>
<wgt id='1535'>0.23002E+02</wgt>
<wgt id='1536'>0.22370E+02</wgt>
<wgt id='1537'>0.22948E+02</wgt>
<wgt id='1538'>0.22362E+02</wgt>
<wgt id='1539'>0.22136E+02</wgt>
<wgt id='1540'>0.22453E+02</wgt>
<wgt id='1541'>0.22561E+02</wgt>
<wgt id='1542'>0.22456E+02</wgt>
<wgt id='1543'>0.22516E+02</wgt>
<wgt id='1544'>0.22604E+02</wgt>
<wgt id='1545'>0.22547E+02</wgt>
<wgt id='1546'>0.22852E+02</wgt>
<wgt id='1547'>0.22262E+02</wgt>
<wgt id='1548'>0.22399E+02</wgt>
<wgt id='1549'>0.22284E+02</wgt>
<wgt id='1550'>0.22340E+02</wgt>
<wgt id='1551'>0.22450E+02</wgt>
<wgt id='1552'>0.22274E+02</wgt>
<wgt id='1553'>0.22848E+02</wgt>
<wgt id='1554'>0.22617E+02</wgt>
<wgt id='1555'>0.22184E+02</wgt>
<wgt id='1556'>0.22384E+02</wgt>
<wgt id='1557'>0.22640E+02</wgt>
<wgt id='1558'>0.22287E+02</wgt>
<wgt id='1559'>0.23082E+02</wgt>
<wgt id='1560'>0.22387E+02</wgt>
<wgt id='1561'>0.22372E+02</wgt>
<wgt id='1562'>0.22742E+02</wgt>
<wgt id='1563'>0.22414E+02</wgt>
<wgt id='1564'>0.22263E+02</wgt>
<wgt id='1565'>0.22491E+02</wgt>
<wgt id='1566'>0.22651E+02</wgt>
<wgt id='1567'>0.24026E+02</wgt>
<wgt id='1568'>0.22398E+02</wgt>
<wgt id='1569'>0.21889E+02</wgt>
<wgt id='1570'>0.22197E+02</wgt>
<wgt id='1571'>0.22328E+02</wgt>
<wgt id='1572'>0.22821E+02</wgt>
<wgt id='1573'>0.21478E+02</wgt>
<wgt id='1574'>0.22952E+02</wgt>
<wgt id='1575'>0.22299E+02</wgt>
<wgt id='1576'>0.22352E+02</wgt>
<wgt id='1577'>0.22710E+02</wgt>
<wgt id='1578'>0.22988E+02</wgt>
<wgt id='1579'>0.22245E+02</wgt>
<wgt id='1580'>0.22474E+02</wgt>
<wgt id='1581'>0.22692E+02</wgt>
<wgt id='1582'>0.22071E+02</wgt>
<wgt id='1583'>0.23078E+02</wgt>
<wgt id='1584'>0.22350E+02</wgt>
<wgt id='1585'>0.22280E+02</wgt>
<wgt id='1586'>0.22400E+02</wgt>
<wgt id='1587'>0.22701E+02</wgt>
<wgt id='1588'>0.22416E+02</wgt>
<wgt id='1589'>0.23233E+02</wgt>
<wgt id='1590'>0.22424E+02</wgt>
<wgt id='1591'>0.22267E+02</wgt>
<wgt id='1592'>0.22344E+02</wgt>
<wgt id='1593'>0.22500E+02</wgt>
<wgt id='1594'>0.23066E+02</wgt>
<wgt id='1595'>0.22334E+02</wgt>
<wgt id='1596'>0.22719E+02</wgt>
<wgt id='1597'>0.22397E+02</wgt>
<wgt id='1598'>0.22725E+02</wgt>
<wgt id='1599'>0.22662E+02</wgt>
<wgt id='1600'>0.23008E+02</wgt>
<wgt id='1601'>0.22148E+02</wgt>
<wgt id='1602'>0.22797E+02</wgt>
<wgt id='1700'>0.21434E+02</wgt>
<wgt id='1800'>0.25649E+02</wgt>
<wgt id='1850'>0.31815E+02</wgt>
<wgt id='1900'>0.27114E+02</wgt>
<wgt id='1950'>0.31692E+02</wgt>
</rwgt>
</event>
<event>
      4   9999  2.16956E+01  5.18292E+01 -1.00000E+00  1.36208E-01
      21    -1     0     0   502   501  0.000000000E+00  0.000000000E+00  4.264462232E+02  4.264462232E+02  0.000000000E+00  0.00000E+00  9.000E+00
      21    -1     0     0   501   511  0.000000000E+00  0.000000000E+00 -3.833241593E+01  3.833241593E+01  0.000000000E+00  0.00000E+00  9.000E+00
      25     1     1     2     0     0 -6.592530084E+00  5.140818691E+01  3.901079674E+02  4.129111174E+02  1.250004062E+02  0.00000E+00  9.000E+00
      21     1     1     2   502   511  6.592530084E+00 -5.140818691E+01 -1.994160096E+00  5.186752172E+01  9.800841601E-07  0.00000E+00  9.000E+00
#rwgt            1           1   24.186678240104289                1         381           0
<rwgt>
<wgt id='1001'>0.21696E+02</wgt>
<wgt id='1002'>0.18960E+02</wgt>
<wgt id='1003'>0.24353E+02</wgt>
<wgt id='1004'>0.19224E+02</wgt>
<wgt id='1005'>0.17251E+02</wgt>
<wgt id='1006'>0.21089E+02</wgt>
<wgt id='1007'>0.24479E+02</wgt>
<wgt id='1008'>0.20576E+02</wgt>
<wgt id='1009'>0.28363E+02</wgt>
<wgt id='2000'>0.21696E+02</wgt>
<wgt id='2001'>0.21668E+02</wgt>
<wgt id='2002'>0.21726E+02</wgt>
<wgt id='2003'>0.21698E+02</wgt>
<wgt id='2004'>0.21716E+02</wgt>
<wgt id='2005'>0.21703E+02</wgt>
<wgt id='2006'>0.21687E+02</wgt>
<wgt id='2007'>0.21722E+02</wgt>
<wgt id='2008'>0.21751E+02</wgt>
<wgt id='2009'>0.21666E+02</wgt>
<wgt id='2010'>0.21660E+02</wgt>
<wgt id='2011'>0.21732E+02</wgt>
<wgt id='2012'>0.21720E+02</wgt>
<wgt id='2013'>0.21686E+02</wgt>
<wgt id='2014'>0.21685E+02</wgt>
<wgt id='2015'>0.21700E+02</wgt>
<wgt id='2016'>0.21713E+02</wgt>
<wgt id='2017'>0.21688E+02</wgt>
<wgt id='2018'>0.21686E+02</wgt>
<wgt id='2019'>0.21702E+02</wgt>
<wgt id='2020'>0.21709E+02</wgt>
<wgt id='2021'>0.21695E+02</wgt>
<wgt id='2022'>0.21712E+02</wgt>
<wgt id='2023'>0.21720E+02</wgt>
<wgt id='2024'>0.21673E+02</wgt>
<wgt id='2025'>0.21732E+02</wgt>
<wgt id='2026'>0.21745E+02</wgt>
<wgt id='2027'>0.21671E+02</wgt>
<wgt id='2028'>0.21651E+02</wgt>
<wgt id='2029'>0.21769E+02</wgt>
<wgt id='2030'>0.21703E+02</wgt>
<wgt id='2031'>0.21719E+02</wgt>
<wgt id='2032'>0.21665E+02</wgt>
<wgt id='2033'>0.21700E+02</wgt>
<wgt id='2034'>0.21747E+02</wgt>
<wgt id='2035'>0.21699E+02</wgt>
<wgt id='2036'>0.21709E+02</wgt>
<wgt id='2037'>0.21724E+02</wgt>
<wgt id='2038'>0.21688E+02</wgt>
<wgt id='2039'>0.21656E+02</wgt>
<wgt id='2040'>0.21704E+02</wgt>
<wgt id='2041'>0.21703E+02</wgt>
<wgt id='2042'>0.21691E+02</wgt>
<wgt id='2043'>0.21678E+02</wgt>
<wgt id='2044'>0.21713E+02</wgt>
<wgt id='2045'>0.21687E+02</wgt>
<wgt id='2046'>0.21730E+02</wgt>
<wgt id='2047'>0.21728E+02</wgt>
<wgt id='2048'>0.21692E+02</wgt>
<wgt id='2049'>0.21690E+02</wgt>
<wgt id='2050'>0.21702E+02</wgt>
<wgt id='2051'>0.21709E+02</wgt>
<wgt id='2052'>0.21695E+02</wgt>
<wgt id='2053'>0.21705E+02</wgt>
<wgt id='2054'>0.21696E+02</wgt>
<wgt id='2055'>0.21692E+02</wgt>
<wgt id='2056'>0.21688E+02</wgt>
<wgt id='2057'>0.21697E+02</wgt>
<wgt id='2058'>0.21697E+02</wgt>
<wgt id='2059'>0.21688E+02</wgt>
<wgt id='2060'>0.21702E+02</wgt>
<wgt id='2061'>0.21676E+02</wgt>
<wgt id='2062'>0.21684E+02</wgt>
<wgt id='2063'>0.21713E+02</wgt>
<wgt id='2064'>0.21684E+02</wgt>
<wgt id='2065'>0.21714E+02</wgt>
<wgt id='2066'>0.21695E+02</wgt>
<wgt id='2067'>0.21698E+02</wgt>
<wgt id='2068'>0.21703E+02</wgt>
<wgt id='2069'>0.21703E+02</wgt>
<wgt id='2070'>0.21687E+02</wgt>
<wgt id='2071'>0.21688E+02</wgt>
<wgt id='2072'>0.21695E+02</wgt>
<wgt id='2073'>0.21698E+02</wgt>
<wgt id='2074'>0.21702E+02</wgt>
<wgt id='2075'>0.21698E+02</wgt>
<wgt id='2076'>0.21689E+02</wgt>
<wgt id='2077'>0.21696E+02</wgt>
<wgt id='2078'>0.21692E+02</wgt>
<wgt id='2079'>0.21693E+02</wgt>
<wgt id='2080'>0.21695E+02</wgt>
<wgt id='2081'>0.21701E+02</wgt>
<wgt id='2082'>0.21700E+02</wgt>
<wgt id='2083'>0.21695E+02</wgt>
<wgt id='2084'>0.21704E+02</wgt>
<wgt id='2085'>0.21690E+02</wgt>
<wgt id='2086'>0.21686E+02</wgt>
<wgt id='2087'>0.21698E+02</wgt>
<wgt id='2088'>0.21700E+02</wgt>
<wgt id='2089'>0.21697E+02</wgt>
<wgt id='2090'>0.21694E+02</wgt>
<wgt id='2091'>0.21697E+02</wgt>
<wgt id='2092'>0.21694E+02</wgt>
<wgt id='2093'>0.21694E+02</wgt>
<wgt id='2094'>0.21697E+02</wgt>
<wgt id='2095'>0.21695E+02</wgt>
<wgt id='2096'>0.21695E+02</wgt>
<wgt id='2097'>0.21694E+02</wgt>
<wgt id='2098'>0.21697E+02</wgt>
<wgt id='2099'>0.21692E+02</wgt>
<wgt id='2100'>0.21697E+02</wgt>
<wgt id='2101'>0.21149E+02</wgt>
<wgt id='2102'>0.22244E+02</wgt>
<wgt id='2104'>0.19053E+02</wgt>
<wgt id='2105'>0.19556E+02</wgt>
<wgt id='2106'>0.20044E+02</wgt>
<wgt id='2107'>0.20551E+02</wgt>
<wgt id='2108'>0.21420E+02</wgt>
<wgt id='2109'>0.21975E+02</wgt>
<wgt id='2110'>0.22756E+02</wgt>
<wgt id='2111'>0.23298E+02</wgt>
<wgt id='3000'>0.22712E+02</wgt>
<wgt id='3001'>0.22741E+02</wgt>
<wgt id='3002'>0.22674E+02</wgt>
<wgt id='3003'>0.22714E+02</wgt>
<wgt id='3004'>0.22740E+02</wgt>
<wgt id='3005'>0.22705E+02</wgt>
<wgt id='3006'>0.22705E+02</wgt>
<wgt id='3007'>0.22664E+02</wgt>
<wgt id='3008'>0.22699E+02</wgt>
<wgt id='3009'>0.22624E+02</wgt>
<wgt id='3010'>0.22690E+02</wgt>
<wgt id='3011'>0.22739E+02</wgt>
<wgt id='3012'>0.22746E+02</wgt>
<wgt id='3013'>0.22692E+02</wgt>
<wgt id='3014'>0.22698E+02</wgt>
<wgt id='3015'>0.22715E+02</wgt>
<wgt id='3016'>0.22714E+02</wgt>
<wgt id='3017'>0.22697E+02</wgt>
<wgt id='3018'>0.22733E+02</wgt>
<wgt id='3019'>0.22735E+02</wgt>
<wgt id='3020'>0.22706E+02</wgt>
<wgt id='3021'>0.22701E+02</wgt>
<wgt id='3022'>0.22712E+02</wgt>
<wgt id='3023'>0.22696E+02</wgt>
<wgt id='3024'>0.22685E+02</wgt>
<wgt id='3025'>0.22725E+02</wgt>
<wgt id='3026'>0.22730E+02</wgt>
<wgt id='3027'>0.22717E+02</wgt>
<wgt id='3028'>0.22657E+02</wgt>
<wgt id='3029'>0.22670E+02</wgt>
<wgt id='3030'>0.22782E+02</wgt>
<wgt id='3031'>0.22749E+02</wgt>
<wgt id='3032'>0.22740E+02</wgt>
<wgt id='3033'>0.22768E+02</wgt>
<wgt id='3034'>0.22724E+02</wgt>
<wgt id='3035'>0.22791E+02</wgt>
<wgt id='3036'>0.22725E+02</wgt>
<wgt id='3037'>0.22721E+02</wgt>
<wgt id='3038'>0.22713E+02</wgt>
<wgt id='3039'>0.22691E+02</wgt>
<wgt id='3040'>0.22698E+02</wgt>
<wgt id='3041'>0.22723E+02</wgt>
<wgt id='3042'>0.22691E+02</wgt>
<wgt id='3043'>0.22700E+02</wgt>
<wgt id='3044'>0.22703E+02</wgt>
<wgt id='3045'>0.22723E+02</wgt>
<wgt id='3046'>0.22728E+02</wgt>
<wgt id='3047'>0.22714E+02</wgt>
<wgt id='3048'>0.22712E+02</wgt>
<wgt id='3049'>0.22715E+02</wgt>
<wgt id='3050'>0.22702E+02</wgt>
<wgt id='3051'>0.22739E+02</wgt>
<wgt id='3052'>0.22707E+02</wgt>
<wgt id='3053'>0.22687E+02</wgt>
<wgt id='3054'>0.22701E+02</wgt>
<wgt id='3055'>0.22693E+02</wgt>
<wgt id='3056'>0.22715E+02</wgt>
<wgt id='3057'>0.22693E+02</wgt>
<wgt id='3058'>0.22705E+02</wgt>
<wgt id='3059'>0.22702E+02</wgt>
<wgt id='3060'>0.22717E+02</wgt>
<wgt id='3061'>0.22699E+02</wgt>
<wgt id='3062'>0.22727E+02</wgt>
<wgt id='3063'>0.22712E+02</wgt>
<wgt id='3064'>0.22701E+02</wgt>
<wgt id='3065'>0.22705E+02</wgt>
<wgt id='3066'>0.22716E+02</wgt>
<wgt id='3067'>0.22689E+02</wgt>
<wgt id='3068'>0.22723E+02</wgt>
<wgt id='3069'>0.22705E+02</wgt>
<wgt id='3070'>0.22717E+02</wgt>
<wgt id='3071'>0.22705E+02</wgt>
<wgt id='3072'>0.22715E+02</wgt>
<wgt id='3073'>0.22700E+02</wgt>
<wgt id='3074'>0.22719E+02</wgt>
<wgt id='3075'>0.22708E+02</wgt>
<wgt id='3076'>0.22708E+02</wgt>
<wgt id='3077'>0.22719E+02</wgt>
<wgt id='3078'>0.22714E+02</wgt>
<wgt id='3079'>0.22713E+02</wgt>
<wgt id='3080'>0.22708E+02</wgt>
<wgt id='3081'>0.22717E+02</wgt>
<wgt id='3082'>0.22711E+02</wgt>
<wgt id='3083'>0.22711E+02</wgt>
<wgt id='3084'>0.22716E+02</wgt>
<wgt id='3085'>0.22707E+02</wgt>
<wgt id='3086'>0.22712E+02</wgt>
<wgt id='3087'>0.22723E+02</wgt>
<wgt id='3088'>0.22711E+02</wgt>
<wgt id='3089'>0.22711E+02</wgt>
<wgt id='3090'>0.22711E+02</wgt>
<wgt id='3091'>0.22713E+02</wgt>
<wgt id='3092'>0.22714E+02</wgt>
<wgt id='3093'>0.22708E+02</wgt>
<wgt id='3094'>0.22715E+02</wgt>
<wgt id='3095'>0.22706E+02</wgt>
<wgt id='3096'>0.22712E+02</wgt>
<wgt id='3097'>0.22706E+02</wgt>
<wgt id='3098'>0.22711E+02</wgt>
<wgt id='3099'>0.22713E+02</wgt>
<wgt id='3100'>0.22708E+02</wgt>
<wgt id='3101'>0.22118E+02</wgt>
<wgt id='3102'>0.23331E+02</wgt>
<wgt id='5000'>0.21234E+02</wgt>
<wgt id='5001'>0.21202E+02</wgt>
<wgt id='5002'>0.21185E+02</wgt>
<wgt id='5003'>0.21202E+02</wgt>
<wgt id='5004'>0.21220E+02</wgt>
<wgt id='5005'>0.21108E+02</wgt>
<wgt id='5006'>0.21128E+02</wgt>
<wgt id='5007'>0.21150E+02</wgt>
<wgt id='5008'>0.21230E+02</wgt>
<wgt id='5009'>0.21291E+02</wgt>
<wgt id='5010'>0.21184E+02</wgt>
<wgt id='5011'>0.21273E+02</wgt>
<wgt id='5012'>0.21158E+02</wgt>
<wgt id='5013'>0.21138E+02</wgt>
<wgt id='5014'>0.21195E+02</wgt>
<wgt id='5015'>0.21296E+02</wgt>
<wgt id='5016'>0.21010E+02</wgt>
<wgt id='5017'>0.21182E+02</wgt>
<wgt id='5018'>0.21294E+02</wgt>
<wgt id='5019'>0.21161E+02</wgt>
<wgt id='5020'>0.21306E+02</wgt>
<wgt id='5021'>0.21254E+02</wgt>
<wgt id='5022'>0.21221E+02</wgt>
<wgt id='5023'>0.21109E+02</wgt>
<wgt id='5024'>0.21367E+02</wgt>
<wgt id='5025'>0.21250E+02</wgt>
<wgt id='5026'>0.21221E+02</wgt>
<wgt id='5027'>0.21387E+02</wgt>
<wgt id='5028'>0.20973E+02</wgt>
<wgt id='5029'>0.20987E+02</wgt>
<wgt id='5030'>0.21379E+02</wgt>
<wgt id='5031'>0.21079E+02</wgt>
<wgt id='5032'>0.21453E+02</wgt>
<wgt id='5033'>0.21132E+02</wgt>
<wgt id='5034'>0.21323E+02</wgt>
<wgt id='5035'>0.21036E+02</wgt>
<wgt id='5036'>0.21401E+02</wgt>
<wgt id='5037'>0.21060E+02</wgt>
<wgt id='5038'>0.21426E+02</wgt>
<wgt id='5039'>0.21581E+02</wgt>
<wgt id='5040'>0.21060E+02</wgt>
<wgt id='5041'>0.21136E+02</wgt>
<wgt id='5042'>0.21235E+02</wgt>
<wgt id='5043'>0.21352E+02</wgt>
<wgt id='5044'>0.20902E+02</wgt>
<wgt id='5045'>0.21354E+02</wgt>
<wgt id='5046'>0.21187E+02</wgt>
<wgt id='5047'>0.21121E+02</wgt>
<wgt id='5048'>0.21436E+02</wgt>
<wgt id='5049'>0.21231E+02</wgt>
<wgt id='5050'>0.21296E+02</wgt>
<wgt id='5051'>0.21272E+02</wgt>
<wgt id='5052'>0.21223E+02</wgt>
<wgt id='5053'>0.20710E+02</wgt>
<wgt id='5054'>0.21052E+02</wgt>
<wgt id='5055'>0.21113E+02</wgt>
<wgt id='5056'>0.21413E+02</wgt>
<wgt id='5060'>0.20616E+02</wgt>
<wgt id='5070'>0.21842E+02</wgt>
<wgt id='4000'>0.22233E+02</wgt>
<wgt id='4001'>0.22238E+02</wgt>
<wgt id='4002'>0.22285E+02</wgt>
<wgt id='4003'>0.22158E+02</wgt>
<wgt id='4004'>0.22248E+02</wgt>
<wgt id='4005'>0.22322E+02</wgt>
<wgt id='4006'>0.22181E+02</wgt>
<wgt id='4007'>0.22229E+02</wgt>
<wgt id='4008'>0.22275E+02</wgt>
<wgt id='4009'>0.21996E+02</wgt>
<wgt id='4010'>0.22362E+02</wgt>
<wgt id='4011'>0.22455E+02</wgt>
<wgt id='4012'>0.22098E+02</wgt>
<wgt id='4013'>0.21695E+02</wgt>
<wgt id='4014'>0.22524E+02</wgt>
<wgt id='4015'>0.22499E+02</wgt>
<wgt id='4016'>0.22064E+02</wgt>
<wgt id='4017'>0.21956E+02</wgt>
<wgt id='4018'>0.22562E+02</wgt>
<wgt id='4019'>0.22421E+02</wgt>
<wgt id='4020'>0.22015E+02</wgt>
<wgt id='4021'>0.22239E+02</wgt>
<wgt id='4022'>0.22199E+02</wgt>
<wgt id='4023'>0.22215E+02</wgt>
<wgt id='4024'>0.22238E+02</wgt>
<wgt id='4025'>0.22163E+02</wgt>
<wgt id='4026'>0.22292E+02</wgt>
<wgt id='4027'>0.22212E+02</wgt>
<wgt id='4028'>0.22259E+02</wgt>
<wgt id='4029'>0.22161E+02</wgt>
<wgt id='4030'>0.22258E+02</wgt>
<wgt id='4031'>0.22260E+02</wgt>
<wgt id='4032'>0.22198E+02</wgt>
<wgt id='4033'>0.22205E+02</wgt>
<wgt id='4034'>0.22294E+02</wgt>
<wgt id='4035'>0.22318E+02</wgt>
<wgt id='4036'>0.22151E+02</wgt>
<wgt id='4037'>0.22279E+02</wgt>
<wgt id='4038'>0.22125E+02</wgt>
<wgt id='4039'>0.22166E+02</wgt>
<wgt id='4040'>0.22261E+02</wgt>
<wgt id='4041'>0.22297E+02</wgt>
<wgt id='4042'>0.22179E+02</wgt>
<wgt id='4043'>0.22147E+02</wgt>
<wgt id='4044'>0.22315E+02</wgt>
<wgt id='4045'>0.22103E+02</wgt>
<wgt id='4046'>0.22212E+02</wgt>
<wgt id='4047'>0.22147E+02</wgt>
<wgt id='4048'>0.22143E+02</wgt>
<wgt id='4049'>0.22076E+02</wgt>
<wgt id='4050'>0.22171E+02</wgt>
<wgt id='4051'>0.22194E+02</wgt>
<wgt id='4052'>0.22204E+02</wgt>
<wgt id='4053'>0.21535E+02</wgt>
<wgt id='4054'>0.22232E+02</wgt>
<wgt id='4055'>0.22140E+02</wgt>
<wgt id='4056'>0.22381E+02</wgt>
<wgt id='4060'>0.21546E+02</wgt>
<wgt id='4070'>0.22916E+02</wgt>
<wgt id='4080'>0.23334E+02</wgt>
<wgt id='6000'>0.22497E+02</wgt>
<wgt id='6001'>0.22524E+02</wgt>
<wgt id='6002'>0.22468E+02</wgt>
<wgt id='6003'>0.22508E+02</wgt>
<wgt id='6004'>0.22490E+02</wgt>
<wgt id='6005'>0.22536E+02</wgt>
<wgt id='6006'>0.22460E+02</wgt>
<wgt id='6007'>0.22415E+02</wgt>
<wgt id='6008'>0.22587E+02</wgt>
<wgt id='6009'>0.22588E+02</wgt>
<wgt id='6010'>0.22408E+02</wgt>
<wgt id='6011'>0.22548E+02</wgt>
<wgt id='6012'>0.22387E+02</wgt>
<wgt id='6013'>0.22469E+02</wgt>
<wgt id='6014'>0.22546E+02</wgt>
<wgt id='6015'>0.22433E+02</wgt>
<wgt id='6016'>0.22532E+02</wgt>
<wgt id='6017'>0.22366E+02</wgt>
<wgt id='6018'>0.22652E+02</wgt>
<wgt id='6019'>0.22500E+02</wgt>
<wgt id='6020'>0.22493E+02</wgt>
<wgt id='6021'>0.22461E+02</wgt>
<wgt id='6022'>0.22546E+02</wgt>
<wgt id='6023'>0.22346E+02</wgt>
<wgt id='6024'>0.22604E+02</wgt>
<wgt id='6025'>0.22476E+02</wgt>
<wgt id='6026'>0.22447E+02</wgt>
<wgt id='6027'>0.22557E+02</wgt>
<wgt id='6028'>0.22496E+02</wgt>
<wgt id='6029'>0.22544E+02</wgt>
<wgt id='6030'>0.22441E+02</wgt>
<wgt id='6031'>0.22443E+02</wgt>
<wgt id='6032'>0.22545E+02</wgt>
<wgt id='6033'>0.22557E+02</wgt>
<wgt id='6034'>0.22435E+02</wgt>
<wgt id='6035'>0.22508E+02</wgt>
<wgt id='6036'>0.22504E+02</wgt>
<wgt id='6037'>0.22541E+02</wgt>
<wgt id='6038'>0.22502E+02</wgt>
<wgt id='6039'>0.22459E+02</wgt>
<wgt id='6040'>0.22538E+02</wgt>
<wgt id='6041'>0.22444E+02</wgt>
<wgt id='6042'>0.22562E+02</wgt>
<wgt id='6043'>0.22788E+02</wgt>
<wgt id='6044'>0.22386E+02</wgt>
<wgt id='6045'>0.22473E+02</wgt>
<wgt id='6046'>0.22544E+02</wgt>
<wgt id='6047'>0.22592E+02</wgt>
<wgt id='6048'>0.22322E+02</wgt>
<wgt id='6049'>0.22542E+02</wgt>
<wgt id='6050'>0.22471E+02</wgt>
<wgt id='7000'>0.21172E+02</wgt>
<wgt id='7001'>0.21187E+02</wgt>
<wgt id='7002'>0.21155E+02</wgt>
<wgt id='7003'>0.21232E+02</wgt>
<wgt id='7004'>0.21113E+02</wgt>
<wgt id='7005'>0.21207E+02</wgt>
<wgt id='7006'>0.21159E+02</wgt>
<wgt id='7007'>0.21091E+02</wgt>
<wgt id='7008'>0.21254E+02</wgt>
<wgt id='7009'>0.21216E+02</wgt>
<wgt id='7010'>0.21130E+02</wgt>
<wgt id='7011'>0.20959E+02</wgt>
<wgt id='7012'>0.21265E+02</wgt>
<wgt id='7013'>0.21171E+02</wgt>
<wgt id='7014'>0.21174E+02</wgt>
<wgt id='7015'>0.21108E+02</wgt>
<wgt id='7016'>0.21241E+02</wgt>
<wgt id='7017'>0.21052E+02</wgt>
<wgt id='7018'>0.21236E+02</wgt>
<wgt id='7019'>0.21156E+02</wgt>
<wgt id='7020'>0.21197E+02</wgt>
<wgt id='7021'>0.21159E+02</wgt>
<wgt id='7022'>0.21181E+02</wgt>
<wgt id='7023'>0.21285E+02</wgt>
<wgt id='7024'>0.21050E+02</wgt>
<wgt id='7025'>0.21231E+02</wgt>
<wgt id='7026'>0.21030E+02</wgt>
<wgt id='7027'>0.21246E+02</wgt>
<wgt id='7028'>0.21149E+02</wgt>
<wgt id='7029'>0.21140E+02</wgt>
<wgt id='7030'>0.21238E+02</wgt>
<wgt id='7031'>0.21148E+02</wgt>
<wgt id='7032'>0.21225E+02</wgt>
<wgt id='7033'>0.21166E+02</wgt>
<wgt id='7034'>0.21198E+02</wgt>
<wgt id='7035'>0.21163E+02</wgt>
<wgt id='7036'>0.21186E+02</wgt>
<wgt id='7037'>0.21177E+02</wgt>
<wgt id='7038'>0.21185E+02</wgt>
<wgt id='7039'>0.21132E+02</wgt>
<wgt id='7040'>0.21202E+02</wgt>
<wgt id='7041'>0.21142E+02</wgt>
<wgt id='7042'>0.21208E+02</wgt>
<wgt id='7043'>0.21186E+02</wgt>
<wgt id='7044'>0.21090E+02</wgt>
<wgt id='7045'>0.20995E+02</wgt>
<wgt id='7046'>0.21291E+02</wgt>
<wgt id='7047'>0.21232E+02</wgt>
<wgt id='7048'>0.21140E+02</wgt>
<wgt id='7049'>0.21121E+02</wgt>
<wgt id='7050'>0.21212E+02</wgt>
<wgt id='7060'>0.33268E+02</wgt>
<wgt id='8000'>0.21511E+02</wgt>
<wgt id='8001'>0.21505E+02</wgt>
<wgt id='8002'>0.21516E+02</wgt>
<wgt id='8003'>0.21512E+02</wgt>
<wgt id='8004'>0.21510E+02</wgt>
<wgt id='8005'>0.21462E+02</wgt>
<wgt id='8006'>0.21505E+02</wgt>
<wgt id='8007'>0.21496E+02</wgt>
<wgt id='8008'>0.21552E+02</wgt>
<wgt id='8009'>0.21592E+02</wgt>
<wgt id='8010'>0.21508E+02</wgt>
<wgt id='8011'>0.21500E+02</wgt>
<wgt id='8012'>0.21476E+02</wgt>
<wgt id='8013'>0.21497E+02</wgt>
<wgt id='8014'>0.21517E+02</wgt>
<wgt id='8015'>0.21491E+02</wgt>
<wgt id='8016'>0.21522E+02</wgt>
<wgt id='8017'>0.21520E+02</wgt>
<wgt id='8018'>0.21529E+02</wgt>
<wgt id='8019'>0.21527E+02</wgt>
<wgt id='8020'>0.21478E+02</wgt>
<wgt id='8021'>0.21502E+02</wgt>
<wgt id='8022'>0.21456E+02</wgt>
<wgt id='8023'>0.21503E+02</wgt>
<wgt id='8024'>0.21501E+02</wgt>
<wgt id='8025'>0.21537E+02</wgt>
<wgt id='8026'>0.21545E+02</wgt>
<wgt id='8027'>0.21493E+02</wgt>
<wgt id='8028'>0.21524E+02</wgt>
<wgt id='8029'>0.21437E+02</wgt>
<wgt id='8500'>0.22415E+02</wgt>
<wgt id='8501'>0.22308E+02</wgt>
<wgt id='8502'>0.22472E+02</wgt>
<wgt id='8503'>0.22484E+02</wgt>
<wgt id='8504'>0.22366E+02</wgt>
<wgt id='8505'>0.22419E+02</wgt>
<wgt id='8506'>0.22402E+02</wgt>
<wgt id='8507'>0.22477E+02</wgt>
<wgt id='8508'>0.22453E+02</wgt>
<wgt id='8509'>0.22422E+02</wgt>
<wgt id='8510'>0.22624E+02</wgt>
<wgt id='8511'>0.22416E+02</wgt>
<wgt id='8512'>0.22335E+02</wgt>
<wgt id='8513'>0.22404E+02</wgt>
<wgt id='8514'>0.22235E+02</wgt>
<wgt id='8515'>0.22494E+02</wgt>
<wgt id='8516'>0.22425E+02</wgt>
<wgt id='8517'>0.22329E+02</wgt>
<wgt id='8518'>0.22307E+02</wgt>
<wgt id='8519'>0.22297E+02</wgt>
<wgt id='8520'>0.22398E+02</wgt>
<wgt id='8521'>0.22311E+02</wgt>
<wgt id='8522'>0.22455E+02</wgt>
<wgt id='8523'>0.22348E+02</wgt>
<wgt id='8524'>0.22410E+02</wgt>
<wgt id='8525'>0.22401E+02</wgt>
<wgt id='8526'>0.22348E+02</wgt>
<wgt id='8527'>0.22411E+02</wgt>
<wgt id='8528'>0.22357E+02</wgt>
<wgt id='8529'>0.22401E+02</wgt>
<wgt id='8530'>0.22418E+02</wgt>
<wgt id='8531'>0.22400E+02</wgt>
<wgt id='8532'>0.22416E+02</wgt>
<wgt id='8533'>0.22354E+02</wgt>
<wgt id='8534'>0.22412E+02</wgt>
<wgt id='8535'>0.22480E+02</wgt>
<wgt id='8536'>0.22408E+02</wgt>
<wgt id='8537'>0.22421E+02</wgt>
<wgt id='8538'>0.22396E+02</wgt>
<wgt id='8539'>0.22422E+02</wgt>
<wgt id='8540'>0.22414E+02</wgt>
<wgt id='8541'>0.22430E+02</wgt>
<wgt id='8542'>0.22430E+02</wgt>
<wgt id='8543'>0.22397E+02</wgt>
<wgt id='8544'>0.22437E+02</wgt>
<wgt id='8545'>0.22426E+02</wgt>
<wgt id='8546'>0.22439E+02</wgt>
<wgt id='8547'>0.22393E+02</wgt>
<wgt id='8548'>0.22401E+02</wgt>
<wgt id='8549'>0.22414E+02</wgt>
<wgt id='8550'>0.22416E+02</wgt>
<wgt id='8551'>0.22395E+02</wgt>
<wgt id='8552'>0.22413E+02</wgt>
<wgt id='8553'>0.22399E+02</wgt>
<wgt id='8554'>0.22403E+02</wgt>
<wgt id='8555'>0.22416E+02</wgt>
<wgt id='8556'>0.22410E+02</wgt>
<wgt id='8557'>0.22407E+02</wgt>
<wgt id='8558'>0.22443E+02</wgt>
<wgt id='8559'>0.22400E+02</wgt>
<wgt id='8560'>0.22385E+02</wgt>
<wgt id='8561'>0.22414E+02</wgt>
<wgt id='8562'>0.22391E+02</wgt>
<wgt id='8563'>0.22415E+02</wgt>
<wgt id='8564'>0.22402E+02</wgt>
<wgt id='8565'>0.22414E+02</wgt>
<wgt id='8566'>0.22403E+02</wgt>
<wgt id='8567'>0.22409E+02</wgt>
<wgt id='8568'>0.22429E+02</wgt>
<wgt id='8569'>0.22423E+02</wgt>
<wgt id='8570'>0.22416E+02</wgt>
<wgt id='8571'>0.22406E+02</wgt>
<wgt id='8572'>0.22403E+02</wgt>
<wgt id='8573'>0.22405E+02</wgt>
<wgt id='8574'>0.22417E+02</wgt>
<wgt id='8575'>0.22417E+02</wgt>
<wgt id='8576'>0.22407E+02</wgt>
<wgt id='8577'>0.22417E+02</wgt>
<wgt id='8578'>0.22413E+02</wgt>
<wgt id='8579'>0.22424E+02</wgt>
<wgt id='8580'>0.22416E+02</wgt>
<wgt id='8581'>0.22426E+02</wgt>
<wgt id='8582'>0.22397E+02</wgt>
<wgt id='8583'>0.22427E+02</wgt>
<wgt id='8584'>0.22417E+02</wgt>
<wgt id='8585'>0.22423E+02</wgt>
<wgt id='8586'>0.22420E+02</wgt>
<wgt id='8587'>0.22412E+02</wgt>
<wgt id='8588'>0.22409E+02</wgt>
<wgt id='8589'>0.22415E+02</wgt>
<wgt id='8590'>0.22415E+02</wgt>
<wgt id='8591'>0.22413E+02</wgt>
<wgt id='8592'>0.22413E+02</wgt>
<wgt id='8593'>0.22408E+02</wgt>
<wgt id='8594'>0.22422E+02</wgt>
<wgt id='8595'>0.22418E+02</wgt>
<wgt id='8596'>0.22409E+02</wgt>
<wgt id='8597'>0.22417E+02</wgt>
<wgt id='8598'>0.22419E+02</wgt>
<wgt id='8599'>0.22416E+02</wgt>
<wgt id='8600'>0.22414E+02</wgt>
<wgt id='8601'>0.21970E+02</wgt>
<wgt id='8602'>0.22840E+02</wgt>
<wgt id='9000'>0.21283E+02</wgt>
<wgt id='9001'>0.21310E+02</wgt>
<wgt id='9002'>0.21313E+02</wgt>
<wgt id='9003'>0.21214E+02</wgt>
<wgt id='9004'>0.21291E+02</wgt>
<wgt id='9005'>0.21306E+02</wgt>
<wgt id='9006'>0.21325E+02</wgt>
<wgt id='9007'>0.21361E+02</wgt>
<wgt id='9008'>0.21340E+02</wgt>
<wgt id='9009'>0.21272E+02</wgt>
<wgt id='9010'>0.21243E+02</wgt>
<wgt id='9011'>0.21410E+02</wgt>
<wgt id='9012'>0.21183E+02</wgt>
<wgt id='9013'>0.21157E+02</wgt>
<wgt id='9014'>0.21215E+02</wgt>
<wgt id='9015'>0.21253E+02</wgt>
<wgt id='9016'>0.21414E+02</wgt>
<wgt id='9017'>0.21194E+02</wgt>
<wgt id='9018'>0.21270E+02</wgt>
<wgt id='9019'>0.21286E+02</wgt>
<wgt id='9020'>0.21442E+02</wgt>
<wgt id='9021'>0.21277E+02</wgt>
<wgt id='9022'>0.21316E+02</wgt>
<wgt id='9023'>0.21201E+02</wgt>
<wgt id='9024'>0.21231E+02</wgt>
<wgt id='9025'>0.21309E+02</wgt>
<wgt id='9026'>0.21281E+02</wgt>
<wgt id='9027'>0.21269E+02</wgt>
<wgt id='9028'>0.21307E+02</wgt>
<wgt id='9029'>0.21304E+02</wgt>
<wgt id='9030'>0.21317E+02</wgt>
<wgt id='9031'>0.21275E+02</wgt>
<wgt id='9032'>0.21312E+02</wgt>
<wgt id='9033'>0.21314E+02</wgt>
<wgt id='9034'>0.21267E+02</wgt>
<wgt id='9035'>0.21315E+02</wgt>
<wgt id='9036'>0.21290E+02</wgt>
<wgt id='9037'>0.21306E+02</wgt>
<wgt id='9038'>0.21296E+02</wgt>
<wgt id='9039'>0.21296E+02</wgt>
<wgt id='9040'>0.21256E+02</wgt>
<wgt id='9041'>0.21284E+02</wgt>
<wgt id='9042'>0.21272E+02</wgt>
<wgt id='9043'>0.21259E+02</wgt>
<wgt id='9044'>0.21283E+02</wgt>
<wgt id='9045'>0.21277E+02</wgt>
<wgt id='9046'>0.21255E+02</wgt>
<wgt id='9047'>0.21285E+02</wgt>
<wgt id='9048'>0.21289E+02</wgt>
<wgt id='9049'>0.21272E+02</wgt>
<wgt id='9050'>0.21282E+02</wgt>
<wgt id='9051'>0.21294E+02</wgt>
<wgt id='9052'>0.21292E+02</wgt>
<wgt id='9053'>0.21279E+02</wgt>
<wgt id='9054'>0.21274E+02</wgt>
<wgt id='9055'>0.21275E+02</wgt>
<wgt id='9056'>0.21306E+02</wgt>
<wgt id='9057'>0.21285E+02</wgt>
<wgt id='9058'>0.21258E+02</wgt>
<wgt id='9059'>0.21276E+02</wgt>
<wgt id='9060'>0.21274E+02</wgt>
<wgt id='9061'>0.21285E+02</wgt>
<wgt id='9062'>0.21284E+02</wgt>
<wgt id='9063'>0.21294E+02</wgt>
<wgt id='9064'>0.21276E+02</wgt>
<wgt id='9065'>0.21286E+02</wgt>
<wgt id='9066'>0.21290E+02</wgt>
<wgt id='9067'>0.21293E+02</wgt>
<wgt id='9068'>0.21284E+02</wgt>
<wgt id='9069'>0.21302E+02</wgt>
<wgt id='9070'>0.21276E+02</wgt>
<wgt id='9071'>0.21302E+02</wgt>
<wgt id='9072'>0.21303E+02</wgt>
<wgt id='9073'>0.21277E+02</wgt>
<wgt id='9074'>0.21282E+02</wgt>
<wgt id='9075'>0.21282E+02</wgt>
<wgt id='9076'>0.21285E+02</wgt>
<wgt id='9077'>0.21284E+02</wgt>
<wgt id='9078'>0.21282E+02</wgt>
<wgt id='9079'>0.21283E+02</wgt>
<wgt id='9080'>0.21302E+02</wgt>
<wgt id='9081'>0.21280E+02</wgt>
<wgt id='9082'>0.21292E+02</wgt>
<wgt id='9083'>0.21276E+02</wgt>
<wgt id='9084'>0.21281E+02</wgt>
<wgt id='9085'>0.21277E+02</wgt>
<wgt id='9086'>0.21281E+02</wgt>
<wgt id='9087'>0.21273E+02</wgt>
<wgt id='9088'>0.21279E+02</wgt>
<wgt id='9089'>0.21279E+02</wgt>
<wgt id='9090'>0.21287E+02</wgt>
<wgt id='9091'>0.21284E+02</wgt>
<wgt id='9092'>0.21280E+02</wgt>
<wgt id='9093'>0.21280E+02</wgt>
<wgt id='9094'>0.21284E+02</wgt>
<wgt id='9095'>0.21286E+02</wgt>
<wgt id='9096'>0.21278E+02</wgt>
<wgt id='9097'>0.21284E+02</wgt>
<wgt id='9098'>0.21283E+02</wgt>
<wgt id='9099'>0.21280E+02</wgt>
<wgt id='9100'>0.21281E+02</wgt>
<wgt id='9101'>0.20927E+02</wgt>
<wgt id='9102'>0.21640E+02</wgt>
<wgt id='10000'>0.22415E+02</wgt>
<wgt id='10001'>0.22472E+02</wgt>
<wgt id='10002'>0.22300E+02</wgt>
<wgt id='10003'>0.22414E+02</wgt>
<wgt id='10004'>0.22321E+02</wgt>
<wgt id='10005'>0.22666E+02</wgt>
<wgt id='10006'>0.22360E+02</wgt>
<wgt id='10007'>0.22407E+02</wgt>
<wgt id='10008'>0.22481E+02</wgt>
<wgt id='10009'>0.22352E+02</wgt>
<wgt id='10010'>0.22458E+02</wgt>
<wgt id='10011'>0.22371E+02</wgt>
<wgt id='10012'>0.22367E+02</wgt>
<wgt id='10013'>0.22419E+02</wgt>
<wgt id='10014'>0.22404E+02</wgt>
<wgt id='10015'>0.22446E+02</wgt>
<wgt id='10016'>0.22383E+02</wgt>
<wgt id='10017'>0.22286E+02</wgt>
<wgt id='10018'>0.22458E+02</wgt>
<wgt id='10019'>0.22353E+02</wgt>
<wgt id='10020'>0.22372E+02</wgt>
<wgt id='10021'>0.22404E+02</wgt>
<wgt id='10022'>0.22377E+02</wgt>
<wgt id='10023'>0.22429E+02</wgt>
<wgt id='10024'>0.22404E+02</wgt>
<wgt id='10025'>0.22393E+02</wgt>
<wgt id='10026'>0.22471E+02</wgt>
<wgt id='10027'>0.22458E+02</wgt>
<wgt id='10028'>0.22624E+02</wgt>
<wgt id='10029'>0.22444E+02</wgt>
<wgt id='10030'>0.22405E+02</wgt>
<wgt id='10031'>0.21970E+02</wgt>
<wgt id='10032'>0.22840E+02</wgt>
<wgt id='11000'>0.21283E+02</wgt>
<wgt id='11001'>0.21087E+02</wgt>
<wgt id='11002'>0.21299E+02</wgt>
<wgt id='11003'>0.21267E+02</wgt>
<wgt id='11004'>0.21282E+02</wgt>
<wgt id='11005'>0.21128E+02</wgt>
<wgt id='11006'>0.21287E+02</wgt>
<wgt id='11007'>0.21250E+02</wgt>
<wgt id='11008'>0.21239E+02</wgt>
<wgt id='11009'>0.21245E+02</wgt>
<wgt id='11010'>0.21439E+02</wgt>
<wgt id='11011'>0.21225E+02</wgt>
<wgt id='11012'>0.21283E+02</wgt>
<wgt id='11013'>0.21324E+02</wgt>
<wgt id='11014'>0.21252E+02</wgt>
<wgt id='11015'>0.21254E+02</wgt>
<wgt id='11016'>0.21266E+02</wgt>
<wgt id='11017'>0.21372E+02</wgt>
<wgt id='11018'>0.21281E+02</wgt>
<wgt id='11019'>0.21288E+02</wgt>
<wgt id='11020'>0.21304E+02</wgt>
<wgt id='11021'>0.21306E+02</wgt>
<wgt id='11022'>0.21459E+02</wgt>
<wgt id='11023'>0.21283E+02</wgt>
<wgt id='11024'>0.21277E+02</wgt>
<wgt id='11025'>0.21256E+02</wgt>
<wgt id='11026'>0.21287E+02</wgt>
<wgt id='11027'>0.21288E+02</wgt>
<wgt id='11028'>0.21284E+02</wgt>
<wgt id='11029'>0.21272E+02</wgt>
<wgt id='11030'>0.21280E+02</wgt>
<wgt id='11031'>0.20927E+02</wgt>
<wgt id='11032'>0.21640E+02</wgt>
<wgt id='12000'>0.22694E+02</wgt>
<wgt id='12001'>0.22667E+02</wgt>
<wgt id='12002'>0.22722E+02</wgt>
<wgt id='12003'>0.22748E+02</wgt>
<wgt id='12004'>0.22641E+02</wgt>
<wgt id='12005'>0.22725E+02</wgt>
<wgt id='12006'>0.22664E+02</wgt>
<wgt id='12007'>0.22748E+02</wgt>
<wgt id='12008'>0.22643E+02</wgt>
<wgt id='12009'>0.22710E+02</wgt>
<wgt id='12010'>0.22679E+02</wgt>
<wgt id='12011'>0.22602E+02</wgt>
<wgt id='12012'>0.22788E+02</wgt>
<wgt id='12013'>0.22611E+02</wgt>
<wgt id='12014'>0.22778E+02</wgt>
<wgt id='12015'>0.22743E+02</wgt>
<wgt id='12016'>0.22643E+02</wgt>
<wgt id='12017'>0.22777E+02</wgt>
<wgt id='12018'>0.22603E+02</wgt>
<wgt id='12019'>0.22668E+02</wgt>
<wgt id='12020'>0.22718E+02</wgt>
<wgt id='12021'>0.22735E+02</wgt>
<wgt id='12022'>0.22631E+02</wgt>
<wgt id='12023'>0.22527E+02</wgt>
<wgt id='12024'>0.22765E+02</wgt>
<wgt id='12025'>0.22659E+02</wgt>
<wgt id='12026'>0.22763E+02</wgt>
<wgt id='12027'>0.22829E+02</wgt>
<wgt id='12028'>0.22582E+02</wgt>
<wgt id='12050'>0.22694E+02</wgt>
<wgt id='12051'>0.22713E+02</wgt>
<wgt id='12052'>0.22648E+02</wgt>
<wgt id='12053'>0.22709E+02</wgt>
<wgt id='12054'>0.22664E+02</wgt>
<wgt id='12055'>0.22735E+02</wgt>
<wgt id='12056'>0.22734E+02</wgt>
<wgt id='12057'>0.22645E+02</wgt>
<wgt id='12058'>0.22748E+02</wgt>
<wgt id='12059'>0.22702E+02</wgt>
<wgt id='12060'>0.22697E+02</wgt>
<wgt id='12061'>0.22632E+02</wgt>
<wgt id='12062'>0.22735E+02</wgt>
<wgt id='12063'>0.22625E+02</wgt>
<wgt id='13000'>0.21749E+02</wgt>
<wgt id='13001'>0.21733E+02</wgt>
<wgt id='13002'>0.21762E+02</wgt>
<wgt id='13003'>0.21779E+02</wgt>
<wgt id='13004'>0.21716E+02</wgt>
<wgt id='13005'>0.21795E+02</wgt>
<wgt id='13006'>0.21700E+02</wgt>
<wgt id='13007'>0.21834E+02</wgt>
<wgt id='13008'>0.21663E+02</wgt>
<wgt id='13009'>0.21714E+02</wgt>
<wgt id='13010'>0.21781E+02</wgt>
<wgt id='13011'>0.21805E+02</wgt>
<wgt id='13012'>0.21690E+02</wgt>
<wgt id='13013'>0.21685E+02</wgt>
<wgt id='13014'>0.21810E+02</wgt>
<wgt id='13015'>0.21746E+02</wgt>
<wgt id='13016'>0.21751E+02</wgt>
<wgt id='13017'>0.21728E+02</wgt>
<wgt id='13018'>0.21763E+02</wgt>
<wgt id='13019'>0.21716E+02</wgt>
<wgt id='13020'>0.21776E+02</wgt>
<wgt id='13021'>0.21703E+02</wgt>
<wgt id='13022'>0.21766E+02</wgt>
<wgt id='13023'>0.21666E+02</wgt>
<wgt id='13024'>0.21831E+02</wgt>
<wgt id='13025'>0.21579E+02</wgt>
<wgt id='13026'>0.21873E+02</wgt>
<wgt id='13027'>0.21692E+02</wgt>
<wgt id='13028'>0.21825E+02</wgt>
<wgt id='13050'>0.21749E+02</wgt>
<wgt id='13051'>0.21766E+02</wgt>
<wgt id='13052'>0.21603E+02</wgt>
<wgt id='13053'>0.21757E+02</wgt>
<wgt id='13054'>0.21737E+02</wgt>
<wgt id='13055'>0.21517E+02</wgt>
<wgt id='13056'>0.21798E+02</wgt>
<wgt id='13057'>0.21698E+02</wgt>
<wgt id='13058'>0.21841E+02</wgt>
<wgt id='13059'>0.21716E+02</wgt>
<wgt id='13060'>0.21500E+02</wgt>
<wgt id='13061'>0.21695E+02</wgt>
<wgt id='13062'>0.21892E+02</wgt>
<wgt id='13063'>0.21758E+02</wgt>
<wgt id='14000'>0.22171E+02</wgt>
<wgt id='14001'>0.22167E+02</wgt>
<wgt id='14002'>0.22164E+02</wgt>
<wgt id='14003'>0.22161E+02</wgt>
<wgt id='14004'>0.22157E+02</wgt>
<wgt id='14005'>0.22154E+02</wgt>
<wgt id='14006'>0.22150E+02</wgt>
<wgt id='14007'>0.22147E+02</wgt>
<wgt id='14008'>0.22144E+02</wgt>
<wgt id='14009'>0.22140E+02</wgt>
<wgt id='14010'>0.22137E+02</wgt>
<wgt id='14011'>0.22134E+02</wgt>
<wgt id='14012'>0.22130E+02</wgt>
<wgt id='14013'>0.22127E+02</wgt>
<wgt id='14014'>0.22124E+02</wgt>
<wgt id='14015'>0.22120E+02</wgt>
<wgt id='14016'>0.22117E+02</wgt>
<wgt id='14017'>0.22114E+02</wgt>
<wgt id='14018'>0.22110E+02</wgt>
<wgt id='14019'>0.22107E+02</wgt>
<wgt id='14020'>0.22104E+02</wgt>
<wgt id='14021'>0.22100E+02</wgt>
<wgt id='14022'>0.22097E+02</wgt>
<wgt id='14023'>0.22093E+02</wgt>
<wgt id='14024'>0.22090E+02</wgt>
<wgt id='14025'>0.22087E+02</wgt>
<wgt id='14026'>0.22083E+02</wgt>
<wgt id='14027'>0.22080E+02</wgt>
<wgt id='14028'>0.22077E+02</wgt>
<wgt id='14029'>0.22073E+02</wgt>
<wgt id='14030'>0.22070E+02</wgt>
<wgt id='15000'>0.21020E+02</wgt>
<wgt id='15001'>0.21038E+02</wgt>
<wgt id='15002'>0.21045E+02</wgt>
<wgt id='15003'>0.20954E+02</wgt>
<wgt id='15004'>0.21026E+02</wgt>
<wgt id='15005'>0.21043E+02</wgt>
<wgt id='15006'>0.21067E+02</wgt>
<wgt id='15007'>0.21100E+02</wgt>
<wgt id='15008'>0.21075E+02</wgt>
<wgt id='15009'>0.21010E+02</wgt>
<wgt id='15010'>0.20980E+02</wgt>
<wgt id='15011'>0.21153E+02</wgt>
<wgt id='15012'>0.20924E+02</wgt>
<wgt id='15013'>0.20899E+02</wgt>
<wgt id='15014'>0.20948E+02</wgt>
<wgt id='15015'>0.20976E+02</wgt>
<wgt id='15016'>0.21157E+02</wgt>
<wgt id='15017'>0.20929E+02</wgt>
<wgt id='15018'>0.21005E+02</wgt>
<wgt id='15019'>0.21027E+02</wgt>
<wgt id='15020'>0.21183E+02</wgt>
<wgt id='15021'>0.21008E+02</wgt>
<wgt id='15022'>0.21051E+02</wgt>
<wgt id='15023'>0.20940E+02</wgt>
<wgt id='15024'>0.20964E+02</wgt>
<wgt id='15025'>0.21040E+02</wgt>
<wgt id='15026'>0.21011E+02</wgt>
<wgt id='15027'>0.21012E+02</wgt>
<wgt id='15028'>0.21046E+02</wgt>
<wgt id='15029'>0.21037E+02</wgt>
<wgt id='15030'>0.21050E+02</wgt>
<wgt id='15031'>0.21018E+02</wgt>
<wgt id='15032'>0.21047E+02</wgt>
<wgt id='15033'>0.21048E+02</wgt>
<wgt id='15034'>0.21003E+02</wgt>
<wgt id='15035'>0.21049E+02</wgt>
<wgt id='15036'>0.21026E+02</wgt>
<wgt id='15037'>0.21043E+02</wgt>
<wgt id='15038'>0.21032E+02</wgt>
<wgt id='15039'>0.21030E+02</wgt>
<wgt id='15040'>0.20993E+02</wgt>
<wgt id='15041'>0.21019E+02</wgt>
<wgt id='15042'>0.21007E+02</wgt>
<wgt id='15043'>0.20999E+02</wgt>
<wgt id='15044'>0.21019E+02</wgt>
<wgt id='15045'>0.21012E+02</wgt>
<wgt id='15046'>0.20994E+02</wgt>
<wgt id='15047'>0.21019E+02</wgt>
<wgt id='15048'>0.21026E+02</wgt>
<wgt id='15049'>0.21007E+02</wgt>
<wgt id='15050'>0.21019E+02</wgt>
<wgt id='15051'>0.21030E+02</wgt>
<wgt id='15052'>0.21028E+02</wgt>
<wgt id='15053'>0.21016E+02</wgt>
<wgt id='15054'>0.21011E+02</wgt>
<wgt id='15055'>0.21012E+02</wgt>
<wgt id='15056'>0.21040E+02</wgt>
<wgt id='15057'>0.21021E+02</wgt>
<wgt id='15058'>0.20997E+02</wgt>
<wgt id='15059'>0.21014E+02</wgt>
<wgt id='15060'>0.21012E+02</wgt>
<wgt id='15061'>0.21022E+02</wgt>
<wgt id='15062'>0.21020E+02</wgt>
<wgt id='15063'>0.21029E+02</wgt>
<wgt id='15064'>0.21013E+02</wgt>
<wgt id='15065'>0.21022E+02</wgt>
<wgt id='15066'>0.21026E+02</wgt>
<wgt id='15067'>0.21028E+02</wgt>
<wgt id='15068'>0.21020E+02</wgt>
<wgt id='15069'>0.21037E+02</wgt>
<wgt id='15070'>0.21012E+02</wgt>
<wgt id='15071'>0.21038E+02</wgt>
<wgt id='15072'>0.21038E+02</wgt>
<wgt id='15073'>0.21013E+02</wgt>
<wgt id='15074'>0.21018E+02</wgt>
<wgt id='15075'>0.21019E+02</wgt>
<wgt id='15076'>0.21023E+02</wgt>
<wgt id='15077'>0.21020E+02</wgt>
<wgt id='15078'>0.21020E+02</wgt>
<wgt id='15079'>0.21019E+02</wgt>
<wgt id='15080'>0.21037E+02</wgt>
<wgt id='15081'>0.21017E+02</wgt>
<wgt id='15082'>0.21029E+02</wgt>
<wgt id='15083'>0.21013E+02</wgt>
<wgt id='15084'>0.21016E+02</wgt>
<wgt id='15085'>0.21014E+02</wgt>
<wgt id='15086'>0.21019E+02</wgt>
<wgt id='15087'>0.21009E+02</wgt>
<wgt id='15088'>0.21015E+02</wgt>
<wgt id='15089'>0.21015E+02</wgt>
<wgt id='15090'>0.21023E+02</wgt>
<wgt id='15091'>0.21019E+02</wgt>
<wgt id='15092'>0.21016E+02</wgt>
<wgt id='15093'>0.21017E+02</wgt>
<wgt id='15094'>0.21020E+02</wgt>
<wgt id='15095'>0.21023E+02</wgt>
<wgt id='15096'>0.21015E+02</wgt>
<wgt id='15097'>0.21021E+02</wgt>
<wgt id='15098'>0.21019E+02</wgt>
<wgt id='15099'>0.21016E+02</wgt>
<wgt id='15100'>0.21018E+02</wgt>
<wgt id='15101'>0.21019E+02</wgt>
<wgt id='15102'>0.21018E+02</wgt>
<wgt id='15103'>0.21020E+02</wgt>
<wgt id='15104'>0.21020E+02</wgt>
<wgt id='15105'>0.21020E+02</wgt>
<wgt id='15106'>0.21020E+02</wgt>
<wgt id='15107'>0.21018E+02</wgt>
<wgt id='1500'>0.22501E+02</wgt>
<wgt id='1501'>0.21418E+02</wgt>
<wgt id='1502'>0.22501E+02</wgt>
<wgt id='1503'>0.22755E+02</wgt>
<wgt id='1504'>0.22011E+02</wgt>
<wgt id='1505'>0.21191E+02</wgt>
<wgt id='1506'>0.22885E+02</wgt>
<wgt id='1507'>0.22611E+02</wgt>
<wgt id='1508'>0.22400E+02</wgt>
<wgt id='1509'>0.22716E+02</wgt>
<wgt id='1510'>0.22212E+02</wgt>
<wgt id='1511'>0.22096E+02</wgt>
<wgt id='1512'>0.22720E+02</wgt>
<wgt id='1513'>0.22596E+02</wgt>
<wgt id='1514'>0.22443E+02</wgt>
<wgt id='1515'>0.22913E+02</wgt>
<wgt id='1516'>0.22715E+02</wgt>
<wgt id='1517'>0.22428E+02</wgt>
<wgt id='1518'>0.22387E+02</wgt>
<wgt id='1519'>0.22736E+02</wgt>
<wgt id='1520'>0.23080E+02</wgt>
<wgt id='1521'>0.22816E+02</wgt>
<wgt id='1522'>0.22435E+02</wgt>
<wgt id='1523'>0.23838E+02</wgt>
<wgt id='1524'>0.22528E+02</wgt>
<wgt id='1525'>0.22468E+02</wgt>
<wgt id='1526'>0.22366E+02</wgt>
<wgt id='1527'>0.22252E+02</wgt>
<wgt id='1528'>0.22361E+02</wgt>
<wgt id='1529'>0.22739E+02</wgt>
<wgt id='1530'>0.23121E+02</wgt>
<wgt id='1531'>0.22448E+02</wgt>
<wgt id='1532'>0.22111E+02</wgt>
<wgt id='1533'>0.22310E+02</wgt>
<wgt id='1534'>0.22753E+02</wgt>
<wgt id='1535'>0.23025E+02</wgt>
<wgt id='1536'>0.22316E+02</wgt>
<wgt id='1537'>0.22900E+02</wgt>
<wgt id='1538'>0.22293E+02</wgt>
<wgt id='1539'>0.22049E+02</wgt>
<wgt id='1540'>0.22443E+02</wgt>
<wgt id='1541'>0.22521E+02</wgt>
<wgt id='1542'>0.22449E+02</wgt>
<wgt id='1543'>0.22398E+02</wgt>
<wgt id='1544'>0.22549E+02</wgt>
<wgt id='1545'>0.22553E+02</wgt>
<wgt id='1546'>0.22811E+02</wgt>
<wgt id='1547'>0.22100E+02</wgt>
<wgt id='1548'>0.22316E+02</wgt>
<wgt id='1549'>0.22319E+02</wgt>
<wgt id='1550'>0.22258E+02</wgt>
<wgt id='1551'>0.22338E+02</wgt>
<wgt id='1552'>0.22148E+02</wgt>
<wgt id='1553'>0.22990E+02</wgt>
<wgt id='1554'>0.22425E+02</wgt>
<wgt id='1555'>0.22163E+02</wgt>
<wgt id='1556'>0.22345E+02</wgt>
<wgt id='1557'>0.22604E+02</wgt>
<wgt id='1558'>0.22206E+02</wgt>
<wgt id='1559'>0.23122E+02</wgt>
<wgt id='1560'>0.22329E+02</wgt>
<wgt id='1561'>0.22480E+02</wgt>
<wgt id='1562'>0.22725E+02</wgt>
<wgt id='1563'>0.22424E+02</wgt>
<wgt id='1564'>0.22232E+02</wgt>
<wgt id='1565'>0.22369E+02</wgt>
<wgt id='1566'>0.22715E+02</wgt>
<wgt id='1567'>0.23867E+02</wgt>
<wgt id='1568'>0.22373E+02</wgt>
<wgt id='1569'>0.21825E+02</wgt>
<wgt id='1570'>0.22085E+02</wgt>
<wgt id='1571'>0.22335E+02</wgt>
<wgt id='1572'>0.22703E+02</wgt>
<wgt id='1573'>0.21391E+02</wgt>
<wgt id='1574'>0.22881E+02</wgt>
<wgt id='1575'>0.22189E+02</wgt>
<wgt id='1576'>0.22250E+02</wgt>
<wgt id='1577'>0.22699E+02</wgt>
<wgt id='1578'>0.22952E+02</wgt>
<wgt id='1579'>0.22214E+02</wgt>
<wgt id='1580'>0.22474E+02</wgt>
<wgt id='1581'>0.22653E+02</wgt>
<wgt id='1582'>0.22010E+02</wgt>
<wgt id='1583'>0.22928E+02</wgt>
<wgt id='1584'>0.22372E+02</wgt>
<wgt id='1585'>0.22230E+02</wgt>
<wgt id='1586'>0.22378E+02</wgt>
<wgt id='1587'>0.22560E+02</wgt>
<wgt id='1588'>0.22381E+02</wgt>
<wgt id='1589'>0.23023E+02</wgt>
<wgt id='1590'>0.22351E+02</wgt>
<wgt id='1591'>0.22095E+02</wgt>
<wgt id='1592'>0.22364E+02</wgt>
<wgt id='1593'>0.22452E+02</wgt>
<wgt id='1594'>0.23109E+02</wgt>
<wgt id='1595'>0.22307E+02</wgt>
<wgt id='1596'>0.22698E+02</wgt>
<wgt id='1597'>0.22274E+02</wgt>
<wgt id='1598'>0.22701E+02</wgt>
<wgt id='1599'>0.22563E+02</wgt>
<wgt id='1600'>0.22793E+02</wgt>
<wgt id='1601'>0.22132E+02</wgt>
<wgt id='1602'>0.22663E+02</wgt>
<wgt id='1700'>0.21463E+02</wgt>
<wgt id='1800'>0.25470E+02</wgt>
<wgt id='1850'>0.30810E+02</wgt>
<wgt id='1900'>0.26821E+02</wgt>
<wgt id='1950'>0.30589E+02</wgt>
</rwgt>
</event>
<event>
      4   9999  2.16956E+01  1.33004E+01 -1.00000E+00  1.78951E-01
      21    -1     0     0   502   501  0.000000000E+00  0.000000000E+00  4.261201511E+00  4.261201511E+00  0.000000000E+00  0.00000E+00  9.000E+00
      21    -1     0     0   512   502  0.000000000E+00  0.000000000E+00 -1.441432000E+03  1.441432000E+03  0.000000000E+00  0.00000E+00  9.000E+00
      25     1     1     2     0     0  1.207896213E+00  1.324543085E+01 -9.427883755E+02  9.511319003E+02  1.250002817E+02  0.00000E+00  9.000E+00
      21     1     1     2   512   501 -1.207896213E+00 -1.324543085E+01 -4.943824231E+02  4.945613013E+02  9.344061824E-06  0.00000E+00  9.000E+00
#rwgt            1           1   26.867800000765655                1         484           0
<rwgt>
<wgt id='1001'>0.21696E+02</wgt>
<wgt id='1002'>0.20207E+02</wgt>
<wgt id='1003'>0.23059E+02</wgt>
<wgt id='1004'>0.19633E+02</wgt>
<wgt id='1005'>0.18572E+02</wgt>
<wgt id='1006'>0.20547E+02</wgt>
<wgt id='1007'>0.23737E+02</wgt>
<wgt id='1008'>0.21591E+02</wgt>
<wgt id='1009'>0.25811E+02</wgt>
<wgt id='2000'>0.21696E+02</wgt>
<wgt id='2001'>0.21693E+02</wgt>
<wgt id='2002'>0.21614E+02</wgt>
<wgt id='2003'>0.21566E+02</wgt>
<wgt id='2004'>0.21732E+02</wgt>
<wgt id='2005'>0.21774E+02</wgt>
<wgt id='2006'>0.21689E+02</wgt>
<wgt id='2007'>0.21834E+02</wgt>
<wgt id='2008'>0.21791E+02</wgt>
<wgt id='2009'>0.21667E+02</wgt>
<wgt id='2010'>0.21630E+02</wgt>
<wgt id='2011'>0.21668E+02</wgt>
<wgt id='2012'>0.21694E+02</wgt>
<wgt id='2013'>0.21604E+02</wgt>
<wgt id='2014'>0.21629E+02</wgt>
<wgt id='2015'>0.21666E+02</wgt>
<wgt id='2016'>0.21728E+02</wgt>
<wgt id='2017'>0.21677E+02</wgt>
<wgt id='2018'>0.21637E+02</wgt>
<wgt id='2019'>0.21714E+02</wgt>
<wgt id='2020'>0.21642E+02</wgt>
<wgt id='2021'>0.21740E+02</wgt>
<wgt id='2022'>0.21616E+02</wgt>
<wgt id='2023'>0.21711E+02</wgt>
<wgt id='2024'>0.21660E+02</wgt>
<wgt id='2025'>0.21629E+02</wgt>
<wgt id='2026'>0.21686E+02</wgt>
<wgt id='2027'>0.21651E+02</wgt>
<wgt id='2028'>0.21681E+02</wgt>
<wgt id='2029'>0.21887E+02</wgt>
<wgt id='2030'>0.21756E+02</wgt>
<wgt id='2031'>0.21685E+02</wgt>
<wgt id='2032'>0.21787E+02</wgt>
<wgt id='2033'>0.21748E+02</wgt>
<wgt id='2034'>0.21614E+02</wgt>
<wgt id='2035'>0.21675E+02</wgt>
<wgt id='2036'>0.21664E+02</wgt>
<wgt id='2037'>0.21649E+02</wgt>
<wgt id='2038'>0.21715E+02</wgt>
<wgt id='2039'>0.21803E+02</wgt>
<wgt id='2040'>0.21772E+02</wgt>
<wgt id='2041'>0.21697E+02</wgt>
<wgt id='2042'>0.21545E+02</wgt>
<wgt id='2043'>0.21716E+02</wgt>
<wgt id='2044'>0.21702E+02</wgt>
<wgt id='2045'>0.21680E+02</wgt>
<wgt id='2046'>0.21743E+02</wgt>
<wgt id='2047'>0.21759E+02</wgt>
<wgt id='2048'>0.21653E+02</wgt>
<wgt id='2049'>0.21680E+02</wgt>
<wgt id='2050'>0.21710E+02</wgt>
<wgt id='2051'>0.21725E+02</wgt>
<wgt id='2052'>0.21696E+02</wgt>
<wgt id='2053'>0.21716E+02</wgt>
<wgt id='2054'>0.21702E+02</wgt>
<wgt id='2055'>0.21698E+02</wgt>
<wgt id='2056'>0.21681E+02</wgt>
<wgt id='2057'>0.21687E+02</wgt>
<wgt id='2058'>0.21686E+02</wgt>
<wgt id='2059'>0.21677E+02</wgt>
<wgt id='2060'>0.21702E+02</wgt>
<wgt id='2061'>0.21659E+02</wgt>
<wgt id='2062'>0.21669E+02</wgt>
<wgt id='2063'>0.21727E+02</wgt>
<wgt id='2064'>0.21678E+02</wgt>
<wgt id='2065'>0.21730E+02</wgt>
<wgt id='2066'>0.21706E+02</wgt>
<wgt id='2067'>0.21695E+02</wgt>
<wgt id='2068'>0.21708E+02</wgt>
<wgt id='2069'>0.21713E+02</wgt>
<wgt id='2070'>0.21665E+02</wgt>
<wgt id='2071'>0.21680E+02</wgt>
<wgt id='2072'>0.21698E+02</wgt>
<wgt id='2073'>0.21684E+02</wgt>
<wgt id='2074'>0.21693E+02</wgt>
<wgt id='2075'>0.21691E+02</wgt>
<wgt id='2076'>0.21697E+02</wgt>
<wgt id='2077'>0.21675E+02</wgt>
<wgt id='2078'>0.21698E+02</wgt>
<wgt id='2079'>0.21698E+02</wgt>
<wgt id='2080'>0.21703E+02</wgt>
<wgt id='2081'>0.21708E+02</wgt>
<wgt id='2082'>0.21709E+02</wgt>
<wgt id='2083'>0.21698E+02</wgt>
<wgt id='2084'>0.21703E+02</wgt>
<wgt id='2085'>0.21692E+02</wgt>
<wgt id='2086'>0.21679E+02</wgt>
<wgt id='2087'>0.21691E+02</wgt>
<wgt id='2088'>0.21705E+02</wgt>
<wgt id='2089'>0.21692E+02</wgt>
<wgt id='2090'>0.21698E+02</wgt>
<wgt id='2091'>0.21706E+02</wgt>
<wgt id='2092'>0.21697E+02</wgt>
<wgt id='2093'>0.21693E+02</wgt>
<wgt id='2094'>0.21704E+02</wgt>
<wgt id='2095'>0.21699E+02</wgt>
<wgt id='2096'>0.21688E+02</wgt>
<wgt id='2097'>0.21705E+02</wgt>
<wgt id='2098'>0.21689E+02</wgt>
<wgt id='2099'>0.21689E+02</wgt>
<wgt id='2100'>0.21701E+02</wgt>
<wgt id='2101'>0.21271E+02</wgt>
<wgt id='2102'>0.22334E+02</wgt>
<wgt id='2104'>0.18839E+02</wgt>
<wgt id='2105'>0.19428E+02</wgt>
<wgt id='2106'>0.19969E+02</wgt>
<wgt id='2107'>0.20426E+02</wgt>
<wgt id='2108'>0.21361E+02</wgt>
<wgt id='2109'>0.22057E+02</wgt>
<wgt id='2110'>0.22995E+02</wgt>
<wgt id='2111'>0.23723E+02</wgt>
<wgt id='3000'>0.23451E+02</wgt>
<wgt id='3001'>0.23406E+02</wgt>
<wgt id='3002'>0.23534E+02</wgt>
<wgt id='3003'>0.23310E+02</wgt>
<wgt id='3004'>0.23476E+02</wgt>
<wgt id='3005'>0.23315E+02</wgt>
<wgt id='3006'>0.23385E+02</wgt>
<wgt id='3007'>0.23319E+02</wgt>
<wgt id='3008'>0.23465E+02</wgt>
<wgt id='3009'>0.23344E+02</wgt>
<wgt id='3010'>0.23402E+02</wgt>
<wgt id='3011'>0.23448E+02</wgt>
<wgt id='3012'>0.23443E+02</wgt>
<wgt id='3013'>0.23526E+02</wgt>
<wgt id='3014'>0.23397E+02</wgt>
<wgt id='3015'>0.23407E+02</wgt>
<wgt id='3016'>0.23481E+02</wgt>
<wgt id='3017'>0.23416E+02</wgt>
<wgt id='3018'>0.23465E+02</wgt>
<wgt id='3019'>0.23474E+02</wgt>
<wgt id='3020'>0.23496E+02</wgt>
<wgt id='3021'>0.23504E+02</wgt>
<wgt id='3022'>0.23427E+02</wgt>
<wgt id='3023'>0.23433E+02</wgt>
<wgt id='3024'>0.23462E+02</wgt>
<wgt id='3025'>0.23455E+02</wgt>
<wgt id='3026'>0.23413E+02</wgt>
<wgt id='3027'>0.23470E+02</wgt>
<wgt id='3028'>0.23441E+02</wgt>
<wgt id='3029'>0.23443E+02</wgt>
<wgt id='3030'>0.23561E+02</wgt>
<wgt id='3031'>0.23502E+02</wgt>
<wgt id='3032'>0.23385E+02</wgt>
<wgt id='3033'>0.23382E+02</wgt>
<wgt id='3034'>0.23448E+02</wgt>
<wgt id='3035'>0.23296E+02</wgt>
<wgt id='3036'>0.23463E+02</wgt>
<wgt id='3037'>0.23567E+02</wgt>
<wgt id='3038'>0.23460E+02</wgt>
<wgt id='3039'>0.23474E+02</wgt>
<wgt id='3040'>0.23565E+02</wgt>
<wgt id='3041'>0.23493E+02</wgt>
<wgt id='3042'>0.23364E+02</wgt>
<wgt id='3043'>0.23374E+02</wgt>
<wgt id='3044'>0.23457E+02</wgt>
<wgt id='3045'>0.23457E+02</wgt>
<wgt id='3046'>0.23536E+02</wgt>
<wgt id='3047'>0.23434E+02</wgt>
<wgt id='3048'>0.23485E+02</wgt>
<wgt id='3049'>0.23451E+02</wgt>
<wgt id='3050'>0.23391E+02</wgt>
<wgt id='3051'>0.23502E+02</wgt>
<wgt id='3052'>0.23418E+02</wgt>
<wgt id='3053'>0.23419E+02</wgt>
<wgt id='3054'>0.23453E+02</wgt>
<wgt id='3055'>0.23400E+02</wgt>
<wgt id='3056'>0.23438E+02</wgt>
<wgt id='3057'>0.23439E+02</wgt>
<wgt id='3058'>0.23437E+02</wgt>
<wgt id='3059'>0.23417E+02</wgt>
<wgt id='3060'>0.23475E+02</wgt>
<wgt id='3061'>0.23429E+02</wgt>
<wgt id='3062'>0.23483E+02</wgt>
<wgt id='3063'>0.23418E+02</wgt>
<wgt id='3064'>0.23441E+02</wgt>
<wgt id='3065'>0.23419E+02</wgt>
<wgt id='3066'>0.23459E+02</wgt>
<wgt id='3067'>0.23392E+02</wgt>
<wgt id='3068'>0.23468E+02</wgt>
<wgt id='3069'>0.23429E+02</wgt>
<wgt id='3070'>0.23444E+02</wgt>
<wgt id='3071'>0.23429E+02</wgt>
<wgt id='3072'>0.23465E+02</wgt>
<wgt id='3073'>0.23437E+02</wgt>
<wgt id='3074'>0.23478E+02</wgt>
<wgt id='3075'>0.23456E+02</wgt>
<wgt id='3076'>0.23452E+02</wgt>
<wgt id='3077'>0.23466E+02</wgt>
<wgt id='3078'>0.23465E+02</wgt>
<wgt id='3079'>0.23435E+02</wgt>
<wgt id='3080'>0.23437E+02</wgt>
<wgt id='3081'>0.23452E+02</wgt>
<wgt id='3082'>0.23452E+02</wgt>
<wgt id='3083'>0.23431E+02</wgt>
<wgt id='3084'>0.23442E+02</wgt>
<wgt id='3085'>0.23462E+02</wgt>
<wgt id='3086'>0.23434E+02</wgt>
<wgt id='3087'>0.23458E+02</wgt>
<wgt id='3088'>0.23444E+02</wgt>
<wgt id='3089'>0.23445E+02</wgt>
<wgt id='3090'>0.23467E+02</wgt>
<wgt id='3091'>0.23463E+02</wgt>
<wgt id='3092'>0.23446E+02</wgt>
<wgt id='3093'>0.23446E+02</wgt>
<wgt id='3094'>0.23463E+02</wgt>
<wgt id='3095'>0.23439E+02</wgt>
<wgt id='3096'>0.23451E+02</wgt>
<wgt id='3097'>0.23442E+02</wgt>
<wgt id='3098'>0.23436E+02</wgt>
<wgt id='3099'>0.23449E+02</wgt>
<wgt id='3100'>0.23456E+02</wgt>
<wgt id='3101'>0.22855E+02</wgt>
<wgt id='3102'>0.24169E+02</wgt>
<wgt id='5000'>0.23067E+02</wgt>
<wgt id='5001'>0.23082E+02</wgt>
<wgt id='5002'>0.23082E+02</wgt>
<wgt id='5003'>0.23091E+02</wgt>
<wgt id='5004'>0.23215E+02</wgt>
<wgt id='5005'>0.23577E+02</wgt>
<wgt id='5006'>0.23035E+02</wgt>
<wgt id='5007'>0.23031E+02</wgt>
<wgt id='5008'>0.23334E+02</wgt>
<wgt id='5009'>0.22941E+02</wgt>
<wgt id='5010'>0.23136E+02</wgt>
<wgt id='5011'>0.23382E+02</wgt>
<wgt id='5012'>0.22724E+02</wgt>
<wgt id='5013'>0.23743E+02</wgt>
<wgt id='5014'>0.22431E+02</wgt>
<wgt id='5015'>0.22818E+02</wgt>
<wgt id='5016'>0.23695E+02</wgt>
<wgt id='5017'>0.22949E+02</wgt>
<wgt id='5018'>0.23198E+02</wgt>
<wgt id='5019'>0.22711E+02</wgt>
<wgt id='5020'>0.23397E+02</wgt>
<wgt id='5021'>0.22905E+02</wgt>
<wgt id='5022'>0.23168E+02</wgt>
<wgt id='5023'>0.22849E+02</wgt>
<wgt id='5024'>0.23312E+02</wgt>
<wgt id='5025'>0.23110E+02</wgt>
<wgt id='5026'>0.23032E+02</wgt>
<wgt id='5027'>0.22985E+02</wgt>
<wgt id='5028'>0.23196E+02</wgt>
<wgt id='5029'>0.23395E+02</wgt>
<wgt id='5030'>0.22853E+02</wgt>
<wgt id='5031'>0.23165E+02</wgt>
<wgt id='5032'>0.22911E+02</wgt>
<wgt id='5033'>0.22872E+02</wgt>
<wgt id='5034'>0.23263E+02</wgt>
<wgt id='5035'>0.22842E+02</wgt>
<wgt id='5036'>0.23272E+02</wgt>
<wgt id='5037'>0.22793E+02</wgt>
<wgt id='5038'>0.23396E+02</wgt>
<wgt id='5039'>0.23419E+02</wgt>
<wgt id='5040'>0.22902E+02</wgt>
<wgt id='5041'>0.23155E+02</wgt>
<wgt id='5042'>0.23081E+02</wgt>
<wgt id='5043'>0.23176E+02</wgt>
<wgt id='5044'>0.23214E+02</wgt>
<wgt id='5045'>0.22277E+02</wgt>
<wgt id='5046'>0.23495E+02</wgt>
<wgt id='5047'>0.22272E+02</wgt>
<wgt id='5048'>0.23529E+02</wgt>
<wgt id='5049'>0.23003E+02</wgt>
<wgt id='5050'>0.23135E+02</wgt>
<wgt id='5051'>0.23095E+02</wgt>
<wgt id='5052'>0.23005E+02</wgt>
<wgt id='5053'>0.22386E+02</wgt>
<wgt id='5054'>0.22643E+02</wgt>
<wgt id='5055'>0.23014E+02</wgt>
<wgt id='5056'>0.23169E+02</wgt>
<wgt id='5060'>0.22287E+02</wgt>
<wgt id='5070'>0.23930E+02</wgt>
<wgt id='4000'>0.24285E+02</wgt>
<wgt id='4001'>0.24228E+02</wgt>
<wgt id='4002'>0.24322E+02</wgt>
<wgt id='4003'>0.23776E+02</wgt>
<wgt id='4004'>0.24724E+02</wgt>
<wgt id='4005'>0.24386E+02</wgt>
<wgt id='4006'>0.24211E+02</wgt>
<wgt id='4007'>0.23813E+02</wgt>
<wgt id='4008'>0.24662E+02</wgt>
<wgt id='4009'>0.24459E+02</wgt>
<wgt id='4010'>0.24403E+02</wgt>
<wgt id='4011'>0.24226E+02</wgt>
<wgt id='4012'>0.24314E+02</wgt>
<wgt id='4013'>0.24424E+02</wgt>
<wgt id='4014'>0.24212E+02</wgt>
<wgt id='4015'>0.24673E+02</wgt>
<wgt id='4016'>0.24052E+02</wgt>
<wgt id='4017'>0.23923E+02</wgt>
<wgt id='4018'>0.24717E+02</wgt>
<wgt id='4019'>0.24010E+02</wgt>
<wgt id='4020'>0.24555E+02</wgt>
<wgt id='4021'>0.24179E+02</wgt>
<wgt id='4022'>0.24478E+02</wgt>
<wgt id='4023'>0.24578E+02</wgt>
<wgt id='4024'>0.23979E+02</wgt>
<wgt id='4025'>0.24339E+02</wgt>
<wgt id='4026'>0.24236E+02</wgt>
<wgt id='4027'>0.24460E+02</wgt>
<wgt id='4028'>0.24036E+02</wgt>
<wgt id='4029'>0.24470E+02</wgt>
<wgt id='4030'>0.24219E+02</wgt>
<wgt id='4031'>0.24256E+02</wgt>
<wgt id='4032'>0.24323E+02</wgt>
<wgt id='4033'>0.24347E+02</wgt>
<wgt id='4034'>0.24157E+02</wgt>
<wgt id='4035'>0.23874E+02</wgt>
<wgt id='4036'>0.24661E+02</wgt>
<wgt id='4037'>0.23928E+02</wgt>
<wgt id='4038'>0.24774E+02</wgt>
<wgt id='4039'>0.24014E+02</wgt>
<wgt id='4040'>0.24506E+02</wgt>
<wgt id='4041'>0.24199E+02</wgt>
<wgt id='4042'>0.24317E+02</wgt>
<wgt id='4043'>0.23576E+02</wgt>
<wgt id='4044'>0.24732E+02</wgt>
<wgt id='4045'>0.25013E+02</wgt>
<wgt id='4046'>0.24117E+02</wgt>
<wgt id='4047'>0.24384E+02</wgt>
<wgt id='4048'>0.24492E+02</wgt>
<wgt id='4049'>0.24490E+02</wgt>
<wgt id='4050'>0.24680E+02</wgt>
<wgt id='4051'>0.24324E+02</wgt>
<wgt id='4052'>0.24263E+02</wgt>
<wgt id='4053'>0.23505E+02</wgt>
<wgt id='4054'>0.23947E+02</wgt>
<wgt id='4055'>0.24343E+02</wgt>
<wgt id='4056'>0.24270E+02</wgt>
<wgt id='4060'>0.23472E+02</wgt>
<wgt id='4070'>0.25183E+02</wgt>
<wgt id='4080'>0.31904E+02</wgt>
<wgt id='6000'>0.23722E+02</wgt>
<wgt id='6001'>0.23775E+02</wgt>
<wgt id='6002'>0.23665E+02</wgt>
<wgt id='6003'>0.23735E+02</wgt>
<wgt id='6004'>0.23713E+02</wgt>
<wgt id='6005'>0.23708E+02</wgt>
<wgt id='6006'>0.23734E+02</wgt>
<wgt id='6007'>0.23685E+02</wgt>
<wgt id='6008'>0.23762E+02</wgt>
<wgt id='6009'>0.23856E+02</wgt>
<wgt id='6010'>0.23591E+02</wgt>
<wgt id='6011'>0.23778E+02</wgt>
<wgt id='6012'>0.23599E+02</wgt>
<wgt id='6013'>0.23690E+02</wgt>
<wgt id='6014'>0.23779E+02</wgt>
<wgt id='6015'>0.23681E+02</wgt>
<wgt id='6016'>0.23745E+02</wgt>
<wgt id='6017'>0.23568E+02</wgt>
<wgt id='6018'>0.23903E+02</wgt>
<wgt id='6019'>0.23689E+02</wgt>
<wgt id='6020'>0.23750E+02</wgt>
<wgt id='6021'>0.23681E+02</wgt>
<wgt id='6022'>0.23777E+02</wgt>
<wgt id='6023'>0.23548E+02</wgt>
<wgt id='6024'>0.23846E+02</wgt>
<wgt id='6025'>0.24077E+02</wgt>
<wgt id='6026'>0.23258E+02</wgt>
<wgt id='6027'>0.23779E+02</wgt>
<wgt id='6028'>0.23728E+02</wgt>
<wgt id='6029'>0.23585E+02</wgt>
<wgt id='6030'>0.23883E+02</wgt>
<wgt id='6031'>0.23456E+02</wgt>
<wgt id='6032'>0.24012E+02</wgt>
<wgt id='6033'>0.23845E+02</wgt>
<wgt id='6034'>0.23597E+02</wgt>
<wgt id='6035'>0.23788E+02</wgt>
<wgt id='6036'>0.23608E+02</wgt>
<wgt id='6037'>0.23761E+02</wgt>
<wgt id='6038'>0.23734E+02</wgt>
<wgt id='6039'>0.23634E+02</wgt>
<wgt id='6040'>0.23819E+02</wgt>
<wgt id='6041'>0.23589E+02</wgt>
<wgt id='6042'>0.23883E+02</wgt>
<wgt id='6043'>0.24034E+02</wgt>
<wgt id='6044'>0.23673E+02</wgt>
<wgt id='6045'>0.23676E+02</wgt>
<wgt id='6046'>0.23823E+02</wgt>
<wgt id='6047'>0.23705E+02</wgt>
<wgt id='6048'>0.23938E+02</wgt>
<wgt id='6049'>0.23676E+02</wgt>
<wgt id='6050'>0.23760E+02</wgt>
<wgt id='7000'>0.22180E+02</wgt>
<wgt id='7001'>0.22230E+02</wgt>
<wgt id='7002'>0.22115E+02</wgt>
<wgt id='7003'>0.22216E+02</wgt>
<wgt id='7004'>0.22144E+02</wgt>
<wgt id='7005'>0.22200E+02</wgt>
<wgt id='7006'>0.22172E+02</wgt>
<wgt id='7007'>0.22117E+02</wgt>
<wgt id='7008'>0.22242E+02</wgt>
<wgt id='7009'>0.22241E+02</wgt>
<wgt id='7010'>0.22121E+02</wgt>
<wgt id='7011'>0.21930E+02</wgt>
<wgt id='7012'>0.22288E+02</wgt>
<wgt id='7013'>0.22172E+02</wgt>
<wgt id='7014'>0.22189E+02</wgt>
<wgt id='7015'>0.22108E+02</wgt>
<wgt id='7016'>0.22257E+02</wgt>
<wgt id='7017'>0.21900E+02</wgt>
<wgt id='7018'>0.22332E+02</wgt>
<wgt id='7019'>0.22162E+02</wgt>
<wgt id='7020'>0.22205E+02</wgt>
<wgt id='7021'>0.22197E+02</wgt>
<wgt id='7022'>0.22167E+02</wgt>
<wgt id='7023'>0.22100E+02</wgt>
<wgt id='7024'>0.22224E+02</wgt>
<wgt id='7025'>0.22191E+02</wgt>
<wgt id='7026'>0.22155E+02</wgt>
<wgt id='7027'>0.22214E+02</wgt>
<wgt id='7028'>0.22206E+02</wgt>
<wgt id='7029'>0.22302E+02</wgt>
<wgt id='7030'>0.21817E+02</wgt>
<wgt id='7031'>0.22075E+02</wgt>
<wgt id='7032'>0.22405E+02</wgt>
<wgt id='7033'>0.22227E+02</wgt>
<wgt id='7034'>0.22112E+02</wgt>
<wgt id='7035'>0.22017E+02</wgt>
<wgt id='7036'>0.22273E+02</wgt>
<wgt id='7037'>0.22179E+02</wgt>
<wgt id='7038'>0.22225E+02</wgt>
<wgt id='7039'>0.22077E+02</wgt>
<wgt id='7040'>0.22256E+02</wgt>
<wgt id='7041'>0.22299E+02</wgt>
<wgt id='7042'>0.22038E+02</wgt>
<wgt id='7043'>0.22195E+02</wgt>
<wgt id='7044'>0.22094E+02</wgt>
<wgt id='7045'>0.22186E+02</wgt>
<wgt id='7046'>0.22281E+02</wgt>
<wgt id='7047'>0.22241E+02</wgt>
<wgt id='7048'>0.22160E+02</wgt>
<wgt id='7049'>0.22288E+02</wgt>
<wgt id='7050'>0.22213E+02</wgt>
<wgt id='7060'>0.40335E+02</wgt>
<wgt id='8000'>0.22220E+02</wgt>
<wgt id='8001'>0.22215E+02</wgt>
<wgt id='8002'>0.22226E+02</wgt>
<wgt id='8003'>0.22220E+02</wgt>
<wgt id='8004'>0.22219E+02</wgt>
<wgt id='8005'>0.22169E+02</wgt>
<wgt id='8006'>0.22225E+02</wgt>
<wgt id='8007'>0.22219E+02</wgt>
<wgt id='8008'>0.22262E+02</wgt>
<wgt id='8009'>0.22305E+02</wgt>
<wgt id='8010'>0.22214E+02</wgt>
<wgt id='8011'>0.22215E+02</wgt>
<wgt id='8012'>0.22178E+02</wgt>
<wgt id='8013'>0.22196E+02</wgt>
<wgt id='8014'>0.22245E+02</wgt>
<wgt id='8015'>0.22195E+02</wgt>
<wgt id='8016'>0.22250E+02</wgt>
<wgt id='8017'>0.22255E+02</wgt>
<wgt id='8018'>0.22282E+02</wgt>
<wgt id='8019'>0.22163E+02</wgt>
<wgt id='8020'>0.22308E+02</wgt>
<wgt id='8021'>0.22180E+02</wgt>
<wgt id='8022'>0.22387E+02</wgt>
<wgt id='8023'>0.22132E+02</wgt>
<wgt id='8024'>0.22075E+02</wgt>
<wgt id='8025'>0.22103E+02</wgt>
<wgt id='8026'>0.22218E+02</wgt>
<wgt id='8027'>0.22246E+02</wgt>
<wgt id='8028'>0.22221E+02</wgt>
<wgt id='8029'>0.22601E+02</wgt>
<wgt id='8500'>0.23831E+02</wgt>
<wgt id='8501'>0.23647E+02</wgt>
<wgt id='8502'>0.23587E+02</wgt>
<wgt id='8503'>0.23862E+02</wgt>
<wgt id='8504'>0.23803E+02</wgt>
<wgt id='8505'>0.23989E+02</wgt>
<wgt id='8506'>0.23720E+02</wgt>
<wgt id='8507'>0.23948E+02</wgt>
<wgt id='8508'>0.23800E+02</wgt>
<wgt id='8509'>0.23849E+02</wgt>
<wgt id='8510'>0.23635E+02</wgt>
<wgt id='8511'>0.23719E+02</wgt>
<wgt id='8512'>0.24065E+02</wgt>
<wgt id='8513'>0.23867E+02</wgt>
<wgt id='8514'>0.23967E+02</wgt>
<wgt id='8515'>0.23891E+02</wgt>
<wgt id='8516'>0.23809E+02</wgt>
<wgt id='8517'>0.23987E+02</wgt>
<wgt id='8518'>0.23638E+02</wgt>
<wgt id='8519'>0.23597E+02</wgt>
<wgt id='8520'>0.23658E+02</wgt>
<wgt id='8521'>0.23570E+02</wgt>
<wgt id='8522'>0.24043E+02</wgt>
<wgt id='8523'>0.23675E+02</wgt>
<wgt id='8524'>0.23840E+02</wgt>
<wgt id='8525'>0.23855E+02</wgt>
<wgt id='8526'>0.23838E+02</wgt>
<wgt id='8527'>0.23864E+02</wgt>
<wgt id='8528'>0.23768E+02</wgt>
<wgt id='8529'>0.23765E+02</wgt>
<wgt id='8530'>0.23803E+02</wgt>
<wgt id='8531'>0.23825E+02</wgt>
<wgt id='8532'>0.23819E+02</wgt>
<wgt id='8533'>0.23767E+02</wgt>
<wgt id='8534'>0.23829E+02</wgt>
<wgt id='8535'>0.23928E+02</wgt>
<wgt id='8536'>0.23818E+02</wgt>
<wgt id='8537'>0.23837E+02</wgt>
<wgt id='8538'>0.23814E+02</wgt>
<wgt id='8539'>0.23840E+02</wgt>
<wgt id='8540'>0.23841E+02</wgt>
<wgt id='8541'>0.23849E+02</wgt>
<wgt id='8542'>0.23833E+02</wgt>
<wgt id='8543'>0.23795E+02</wgt>
<wgt id='8544'>0.23863E+02</wgt>
<wgt id='8545'>0.23832E+02</wgt>
<wgt id='8546'>0.23865E+02</wgt>
<wgt id='8547'>0.23813E+02</wgt>
<wgt id='8548'>0.23810E+02</wgt>
<wgt id='8549'>0.23827E+02</wgt>
<wgt id='8550'>0.23836E+02</wgt>
<wgt id='8551'>0.23822E+02</wgt>
<wgt id='8552'>0.23821E+02</wgt>
<wgt id='8553'>0.23808E+02</wgt>
<wgt id='8554'>0.23822E+02</wgt>
<wgt id='8555'>0.23828E+02</wgt>
<wgt id='8556'>0.23828E+02</wgt>
<wgt id='8557'>0.23824E+02</wgt>
<wgt id='8558'>0.23856E+02</wgt>
<wgt id='8559'>0.23812E+02</wgt>
<wgt id='8560'>0.23807E+02</wgt>
<wgt id='8561'>0.23835E+02</wgt>
<wgt id='8562'>0.23807E+02</wgt>
<wgt id='8563'>0.23834E+02</wgt>
<wgt id='8564'>0.23820E+02</wgt>
<wgt id='8565'>0.23831E+02</wgt>
<wgt id='8566'>0.23827E+02</wgt>
<wgt id='8567'>0.23832E+02</wgt>
<wgt id='8568'>0.23851E+02</wgt>
<wgt id='8569'>0.23843E+02</wgt>
<wgt id='8570'>0.23831E+02</wgt>
<wgt id='8571'>0.23819E+02</wgt>
<wgt id='8572'>0.23814E+02</wgt>
<wgt id='8573'>0.23813E+02</wgt>
<wgt id='8574'>0.23841E+02</wgt>
<wgt id='8575'>0.23832E+02</wgt>
<wgt id='8576'>0.23824E+02</wgt>
<wgt id='8577'>0.23823E+02</wgt>
<wgt id='8578'>0.23833E+02</wgt>
<wgt id='8579'>0.23843E+02</wgt>
<wgt id='8580'>0.23822E+02</wgt>
<wgt id='8581'>0.23848E+02</wgt>
<wgt id='8582'>0.23809E+02</wgt>
<wgt id='8583'>0.23849E+02</wgt>
<wgt id='8584'>0.23838E+02</wgt>
<wgt id='8585'>0.23844E+02</wgt>
<wgt id='8586'>0.23843E+02</wgt>
<wgt id='8587'>0.23833E+02</wgt>
<wgt id='8588'>0.23824E+02</wgt>
<wgt id='8589'>0.23832E+02</wgt>
<wgt id='8590'>0.23830E+02</wgt>
<wgt id='8591'>0.23824E+02</wgt>
<wgt id='8592'>0.23827E+02</wgt>
<wgt id='8593'>0.23821E+02</wgt>
<wgt id='8594'>0.23841E+02</wgt>
<wgt id='8595'>0.23833E+02</wgt>
<wgt id='8596'>0.23821E+02</wgt>
<wgt id='8597'>0.23837E+02</wgt>
<wgt id='8598'>0.23841E+02</wgt>
<wgt id='8599'>0.23832E+02</wgt>
<wgt id='8600'>0.23830E+02</wgt>
<wgt id='8601'>0.23303E+02</wgt>
<wgt id='8602'>0.24422E+02</wgt>
<wgt id='9000'>0.22447E+02</wgt>
<wgt id='9001'>0.22560E+02</wgt>
<wgt id='9002'>0.22285E+02</wgt>
<wgt id='9003'>0.22685E+02</wgt>
<wgt id='9004'>0.22575E+02</wgt>
<wgt id='9005'>0.22422E+02</wgt>
<wgt id='9006'>0.22682E+02</wgt>
<wgt id='9007'>0.22598E+02</wgt>
<wgt id='9008'>0.22485E+02</wgt>
<wgt id='9009'>0.22503E+02</wgt>
<wgt id='9010'>0.22550E+02</wgt>
<wgt id='9011'>0.22408E+02</wgt>
<wgt id='9012'>0.22476E+02</wgt>
<wgt id='9013'>0.22788E+02</wgt>
<wgt id='9014'>0.22439E+02</wgt>
<wgt id='9015'>0.22194E+02</wgt>
<wgt id='9016'>0.22325E+02</wgt>
<wgt id='9017'>0.22426E+02</wgt>
<wgt id='9018'>0.22622E+02</wgt>
<wgt id='9019'>0.22570E+02</wgt>
<wgt id='9020'>0.22689E+02</wgt>
<wgt id='9021'>0.22130E+02</wgt>
<wgt id='9022'>0.22468E+02</wgt>
<wgt id='9023'>0.22269E+02</wgt>
<wgt id='9024'>0.22335E+02</wgt>
<wgt id='9025'>0.22540E+02</wgt>
<wgt id='9026'>0.22409E+02</wgt>
<wgt id='9027'>0.22404E+02</wgt>
<wgt id='9028'>0.22473E+02</wgt>
<wgt id='9029'>0.22485E+02</wgt>
<wgt id='9030'>0.22426E+02</wgt>
<wgt id='9031'>0.22418E+02</wgt>
<wgt id='9032'>0.22495E+02</wgt>
<wgt id='9033'>0.22475E+02</wgt>
<wgt id='9034'>0.22460E+02</wgt>
<wgt id='9035'>0.22482E+02</wgt>
<wgt id='9036'>0.22467E+02</wgt>
<wgt id='9037'>0.22466E+02</wgt>
<wgt id='9038'>0.22470E+02</wgt>
<wgt id='9039'>0.22447E+02</wgt>
<wgt id='9040'>0.22422E+02</wgt>
<wgt id='9041'>0.22448E+02</wgt>
<wgt id='9042'>0.22426E+02</wgt>
<wgt id='9043'>0.22409E+02</wgt>
<wgt id='9044'>0.22450E+02</wgt>
<wgt id='9045'>0.22429E+02</wgt>
<wgt id='9046'>0.22416E+02</wgt>
<wgt id='9047'>0.22459E+02</wgt>
<wgt id='9048'>0.22456E+02</wgt>
<wgt id='9049'>0.22434E+02</wgt>
<wgt id='9050'>0.22446E+02</wgt>
<wgt id='9051'>0.22465E+02</wgt>
<wgt id='9052'>0.22468E+02</wgt>
<wgt id='9053'>0.22448E+02</wgt>
<wgt id='9054'>0.22440E+02</wgt>
<wgt id='9055'>0.22438E+02</wgt>
<wgt id='9056'>0.22466E+02</wgt>
<wgt id='9057'>0.22448E+02</wgt>
<wgt id='9058'>0.22416E+02</wgt>
<wgt id='9059'>0.22440E+02</wgt>
<wgt id='9060'>0.22445E+02</wgt>
<wgt id='9061'>0.22443E+02</wgt>
<wgt id='9062'>0.22451E+02</wgt>
<wgt id='9063'>0.22453E+02</wgt>
<wgt id='9064'>0.22447E+02</wgt>
<wgt id='9065'>0.22446E+02</wgt>
<wgt id='9066'>0.22447E+02</wgt>
<wgt id='9067'>0.22448E+02</wgt>
<wgt id='9068'>0.22443E+02</wgt>
<wgt id='9069'>0.22475E+02</wgt>
<wgt id='9070'>0.22436E+02</wgt>
<wgt id='9071'>0.22464E+02</wgt>
<wgt id='9072'>0.22468E+02</wgt>
<wgt id='9073'>0.22444E+02</wgt>
<wgt id='9074'>0.22450E+02</wgt>
<wgt id='9075'>0.22447E+02</wgt>
<wgt id='9076'>0.22454E+02</wgt>
<wgt id='9077'>0.22449E+02</wgt>
<wgt id='9078'>0.22454E+02</wgt>
<wgt id='9079'>0.22445E+02</wgt>
<wgt id='9080'>0.22468E+02</wgt>
<wgt id='9081'>0.22449E+02</wgt>
<wgt id='9082'>0.22458E+02</wgt>
<wgt id='9083'>0.22442E+02</wgt>
<wgt id='9084'>0.22441E+02</wgt>
<wgt id='9085'>0.22432E+02</wgt>
<wgt id='9086'>0.22446E+02</wgt>
<wgt id='9087'>0.22428E+02</wgt>
<wgt id='9088'>0.22438E+02</wgt>
<wgt id='9089'>0.22439E+02</wgt>
<wgt id='9090'>0.22451E+02</wgt>
<wgt id='9091'>0.22449E+02</wgt>
<wgt id='9092'>0.22441E+02</wgt>
<wgt id='9093'>0.22444E+02</wgt>
<wgt id='9094'>0.22446E+02</wgt>
<wgt id='9095'>0.22453E+02</wgt>
<wgt id='9096'>0.22441E+02</wgt>
<wgt id='9097'>0.22447E+02</wgt>
<wgt id='9098'>0.22446E+02</wgt>
<wgt id='9099'>0.22443E+02</wgt>
<wgt id='9100'>0.22446E+02</wgt>
<wgt id='9101'>0.21951E+02</wgt>
<wgt id='9102'>0.22997E+02</wgt>
<wgt id='10000'>0.23830E+02</wgt>
<wgt id='10001'>0.23722E+02</wgt>
<wgt id='10002'>0.23686E+02</wgt>
<wgt id='10003'>0.23833E+02</wgt>
<wgt id='10004'>0.23938E+02</wgt>
<wgt id='10005'>0.23519E+02</wgt>
<wgt id='10006'>0.23647E+02</wgt>
<wgt id='10007'>0.23802E+02</wgt>
<wgt id='10008'>0.23786E+02</wgt>
<wgt id='10009'>0.23800E+02</wgt>
<wgt id='10010'>0.23792E+02</wgt>
<wgt id='10011'>0.23747E+02</wgt>
<wgt id='10012'>0.23652E+02</wgt>
<wgt id='10013'>0.23838E+02</wgt>
<wgt id='10014'>0.23859E+02</wgt>
<wgt id='10015'>0.23943E+02</wgt>
<wgt id='10016'>0.23865E+02</wgt>
<wgt id='10017'>0.23607E+02</wgt>
<wgt id='10018'>0.23899E+02</wgt>
<wgt id='10019'>0.23351E+02</wgt>
<wgt id='10020'>0.23787E+02</wgt>
<wgt id='10021'>0.23812E+02</wgt>
<wgt id='10022'>0.23889E+02</wgt>
<wgt id='10023'>0.23863E+02</wgt>
<wgt id='10024'>0.23837E+02</wgt>
<wgt id='10025'>0.23812E+02</wgt>
<wgt id='10026'>0.23889E+02</wgt>
<wgt id='10027'>0.23852E+02</wgt>
<wgt id='10028'>0.24005E+02</wgt>
<wgt id='10029'>0.23832E+02</wgt>
<wgt id='10030'>0.23824E+02</wgt>
<wgt id='10031'>0.23303E+02</wgt>
<wgt id='10032'>0.24422E+02</wgt>
<wgt id='11000'>0.22446E+02</wgt>
<wgt id='11001'>0.22197E+02</wgt>
<wgt id='11002'>0.22261E+02</wgt>
<wgt id='11003'>0.22465E+02</wgt>
<wgt id='11004'>0.22054E+02</wgt>
<wgt id='11005'>0.22638E+02</wgt>
<wgt id='11006'>0.22462E+02</wgt>
<wgt id='11007'>0.22501E+02</wgt>
<wgt id='11008'>0.22433E+02</wgt>
<wgt id='11009'>0.22535E+02</wgt>
<wgt id='11010'>0.22702E+02</wgt>
<wgt id='11011'>0.22436E+02</wgt>
<wgt id='11012'>0.22385E+02</wgt>
<wgt id='11013'>0.22416E+02</wgt>
<wgt id='11014'>0.22436E+02</wgt>
<wgt id='11015'>0.22309E+02</wgt>
<wgt id='11016'>0.22494E+02</wgt>
<wgt id='11017'>0.22462E+02</wgt>
<wgt id='11018'>0.22464E+02</wgt>
<wgt id='11019'>0.22522E+02</wgt>
<wgt id='11020'>0.22433E+02</wgt>
<wgt id='11021'>0.22482E+02</wgt>
<wgt id='11022'>0.22262E+02</wgt>
<wgt id='11023'>0.22456E+02</wgt>
<wgt id='11024'>0.22287E+02</wgt>
<wgt id='11025'>0.22434E+02</wgt>
<wgt id='11026'>0.22445E+02</wgt>
<wgt id='11027'>0.22541E+02</wgt>
<wgt id='11028'>0.22397E+02</wgt>
<wgt id='11029'>0.22009E+02</wgt>
<wgt id='11030'>0.22443E+02</wgt>
<wgt id='11031'>0.21951E+02</wgt>
<wgt id='11032'>0.22997E+02</wgt>
<wgt id='12000'>0.20346E+02</wgt>
<wgt id='12001'>0.20326E+02</wgt>
<wgt id='12002'>0.20366E+02</wgt>
<wgt id='12003'>0.20392E+02</wgt>
<wgt id='12004'>0.20300E+02</wgt>
<wgt id='12005'>0.20349E+02</wgt>
<wgt id='12006'>0.20343E+02</wgt>
<wgt id='12007'>0.20370E+02</wgt>
<wgt id='12008'>0.20322E+02</wgt>
<wgt id='12009'>0.20334E+02</wgt>
<wgt id='12010'>0.20359E+02</wgt>
<wgt id='12011'>0.20215E+02</wgt>
<wgt id='12012'>0.20471E+02</wgt>
<wgt id='12013'>0.20319E+02</wgt>
<wgt id='12014'>0.20372E+02</wgt>
<wgt id='12015'>0.20496E+02</wgt>
<wgt id='12016'>0.20236E+02</wgt>
<wgt id='12017'>0.20408E+02</wgt>
<wgt id='12018'>0.20266E+02</wgt>
<wgt id='12019'>0.20516E+02</wgt>
<wgt id='12020'>0.20186E+02</wgt>
<wgt id='12021'>0.20336E+02</wgt>
<wgt id='12022'>0.20342E+02</wgt>
<wgt id='12023'>0.20080E+02</wgt>
<wgt id='12024'>0.20574E+02</wgt>
<wgt id='12025'>0.20108E+02</wgt>
<wgt id='12026'>0.20609E+02</wgt>
<wgt id='12027'>0.20702E+02</wgt>
<wgt id='12028'>0.20034E+02</wgt>
<wgt id='12050'>0.20346E+02</wgt>
<wgt id='12051'>0.20432E+02</wgt>
<wgt id='12052'>0.20209E+02</wgt>
<wgt id='12053'>0.20430E+02</wgt>
<wgt id='12054'>0.20255E+02</wgt>
<wgt id='12055'>0.20158E+02</wgt>
<wgt id='12056'>0.20928E+02</wgt>
<wgt id='12057'>0.20374E+02</wgt>
<wgt id='12058'>0.20341E+02</wgt>
<wgt id='12059'>0.20455E+02</wgt>
<wgt id='12060'>0.20253E+02</wgt>
<wgt id='12061'>0.20191E+02</wgt>
<wgt id='12062'>0.20407E+02</wgt>
<wgt id='12063'>0.20732E+02</wgt>
<wgt id='13000'>0.22377E+02</wgt>
<wgt id='13001'>0.22361E+02</wgt>
<wgt id='13002'>0.22389E+02</wgt>
<wgt id='13003'>0.22418E+02</wgt>
<wgt id='13004'>0.22331E+02</wgt>
<wgt id='13005'>0.22409E+02</wgt>
<wgt id='13006'>0.22340E+02</wgt>
<wgt id='13007'>0.22439E+02</wgt>
<wgt id='13008'>0.22311E+02</wgt>
<wgt id='13009'>0.22294E+02</wgt>
<wgt id='13010'>0.22456E+02</wgt>
<wgt id='13011'>0.22442E+02</wgt>
<wgt id='13012'>0.22309E+02</wgt>
<wgt id='13013'>0.22341E+02</wgt>
<wgt id='13014'>0.22410E+02</wgt>
<wgt id='13015'>0.22464E+02</wgt>
<wgt id='13016'>0.22332E+02</wgt>
<wgt id='13017'>0.22317E+02</wgt>
<wgt id='13018'>0.22430E+02</wgt>
<wgt id='13019'>0.22462E+02</wgt>
<wgt id='13020'>0.22287E+02</wgt>
<wgt id='13021'>0.22674E+02</wgt>
<wgt id='13022'>0.22069E+02</wgt>
<wgt id='13023'>0.22048E+02</wgt>
<wgt id='13024'>0.22707E+02</wgt>
<wgt id='13025'>0.21969E+02</wgt>
<wgt id='13026'>0.22747E+02</wgt>
<wgt id='13027'>0.22199E+02</wgt>
<wgt id='13028'>0.22578E+02</wgt>
<wgt id='13050'>0.22377E+02</wgt>
<wgt id='13051'>0.22424E+02</wgt>
<wgt id='13052'>0.22109E+02</wgt>
<wgt id='13053'>0.22421E+02</wgt>
<wgt id='13054'>0.22359E+02</wgt>
<wgt id='13055'>0.21506E+02</wgt>
<wgt id='13056'>0.22828E+02</wgt>
<wgt id='13057'>0.22378E+02</wgt>
<wgt id='13058'>0.22407E+02</wgt>
<wgt id='13059'>0.22473E+02</wgt>
<wgt id='13060'>0.21371E+02</wgt>
<wgt id='13061'>0.22436E+02</wgt>
<wgt id='13062'>0.22356E+02</wgt>
<wgt id='13063'>0.22855E+02</wgt>
<wgt id='14000'>0.24188E+02</wgt>
<wgt id='14001'>0.24185E+02</wgt>
<wgt id='14002'>0.24182E+02</wgt>
<wgt id='14003'>0.24179E+02</wgt>
<wgt id='14004'>0.24175E+02</wgt>
<wgt id='14005'>0.24172E+02</wgt>
<wgt id='14006'>0.24169E+02</wgt>
<wgt id='14007'>0.24166E+02</wgt>
<wgt id='14008'>0.24162E+02</wgt>
<wgt id='14009'>0.24159E+02</wgt>
<wgt id='14010'>0.24156E+02</wgt>
<wgt id='14011'>0.24153E+02</wgt>
<wgt id='14012'>0.24150E+02</wgt>
<wgt id='14013'>0.24146E+02</wgt>
<wgt id='14014'>0.24143E+02</wgt>
<wgt id='14015'>0.24140E+02</wgt>
<wgt id='14016'>0.24137E+02</wgt>
<wgt id='14017'>0.24133E+02</wgt>
<wgt id='14018'>0.24130E+02</wgt>
<wgt id='14019'>0.24127E+02</wgt>
<wgt id='14020'>0.24124E+02</wgt>
<wgt id='14021'>0.24120E+02</wgt>
<wgt id='14022'>0.24117E+02</wgt>
<wgt id='14023'>0.24114E+02</wgt>
<wgt id='14024'>0.24111E+02</wgt>
<wgt id='14025'>0.24108E+02</wgt>
<wgt id='14026'>0.24104E+02</wgt>
<wgt id='14027'>0.24101E+02</wgt>
<wgt id='14028'>0.24098E+02</wgt>
<wgt id='14029'>0.24095E+02</wgt>
<wgt id='14030'>0.24091E+02</wgt>
<wgt id='15000'>0.22184E+02</wgt>
<wgt id='15001'>0.22296E+02</wgt>
<wgt id='15002'>0.22024E+02</wgt>
<wgt id='15003'>0.22418E+02</wgt>
<wgt id='15004'>0.22310E+02</wgt>
<wgt id='15005'>0.22159E+02</wgt>
<wgt id='15006'>0.22416E+02</wgt>
<wgt id='15007'>0.22332E+02</wgt>
<wgt id='15008'>0.22221E+02</wgt>
<wgt id='15009'>0.22239E+02</wgt>
<wgt id='15010'>0.22285E+02</wgt>
<wgt id='15011'>0.22145E+02</wgt>
<wgt id='15012'>0.22212E+02</wgt>
<wgt id='15013'>0.22520E+02</wgt>
<wgt id='15014'>0.22175E+02</wgt>
<wgt id='15015'>0.21933E+02</wgt>
<wgt id='15016'>0.22063E+02</wgt>
<wgt id='15017'>0.22163E+02</wgt>
<wgt id='15018'>0.22356E+02</wgt>
<wgt id='15019'>0.22305E+02</wgt>
<wgt id='15020'>0.22423E+02</wgt>
<wgt id='15021'>0.21870E+02</wgt>
<wgt id='15022'>0.22205E+02</wgt>
<wgt id='15023'>0.22006E+02</wgt>
<wgt id='15024'>0.22072E+02</wgt>
<wgt id='15025'>0.22276E+02</wgt>
<wgt id='15026'>0.22146E+02</wgt>
<wgt id='15027'>0.22141E+02</wgt>
<wgt id='15028'>0.22209E+02</wgt>
<wgt id='15029'>0.22221E+02</wgt>
<wgt id='15030'>0.22163E+02</wgt>
<wgt id='15031'>0.22154E+02</wgt>
<wgt id='15032'>0.22231E+02</wgt>
<wgt id='15033'>0.22211E+02</wgt>
<wgt id='15034'>0.22197E+02</wgt>
<wgt id='15035'>0.22219E+02</wgt>
<wgt id='15036'>0.22204E+02</wgt>
<wgt id='15037'>0.22203E+02</wgt>
<wgt id='15038'>0.22207E+02</wgt>
<wgt id='15039'>0.22184E+02</wgt>
<wgt id='15040'>0.22159E+02</wgt>
<wgt id='15041'>0.22185E+02</wgt>
<wgt id='15042'>0.22163E+02</wgt>
<wgt id='15043'>0.22145E+02</wgt>
<wgt id='15044'>0.22187E+02</wgt>
<wgt id='15045'>0.22165E+02</wgt>
<wgt id='15046'>0.22153E+02</wgt>
<wgt id='15047'>0.22195E+02</wgt>
<wgt id='15048'>0.22193E+02</wgt>
<wgt id='15049'>0.22171E+02</wgt>
<wgt id='15050'>0.22182E+02</wgt>
<wgt id='15051'>0.22201E+02</wgt>
<wgt id='15052'>0.22204E+02</wgt>
<wgt id='15053'>0.22185E+02</wgt>
<wgt id='15054'>0.22176E+02</wgt>
<wgt id='15055'>0.22175E+02</wgt>
<wgt id='15056'>0.22202E+02</wgt>
<wgt id='15057'>0.22185E+02</wgt>
<wgt id='15058'>0.22153E+02</wgt>
<wgt id='15059'>0.22176E+02</wgt>
<wgt id='15060'>0.22181E+02</wgt>
<wgt id='15061'>0.22180E+02</wgt>
<wgt id='15062'>0.22187E+02</wgt>
<wgt id='15063'>0.22190E+02</wgt>
<wgt id='15064'>0.22184E+02</wgt>
<wgt id='15065'>0.22182E+02</wgt>
<wgt id='15066'>0.22184E+02</wgt>
<wgt id='15067'>0.22185E+02</wgt>
<wgt id='15068'>0.22180E+02</wgt>
<wgt id='15069'>0.22212E+02</wgt>
<wgt id='15070'>0.22173E+02</wgt>
<wgt id='15071'>0.22201E+02</wgt>
<wgt id='15072'>0.22204E+02</wgt>
<wgt id='15073'>0.22180E+02</wgt>
<wgt id='15074'>0.22187E+02</wgt>
<wgt id='15075'>0.22184E+02</wgt>
<wgt id='15076'>0.22191E+02</wgt>
<wgt id='15077'>0.22185E+02</wgt>
<wgt id='15078'>0.22190E+02</wgt>
<wgt id='15079'>0.22182E+02</wgt>
<wgt id='15080'>0.22204E+02</wgt>
<wgt id='15081'>0.22186E+02</wgt>
<wgt id='15082'>0.22195E+02</wgt>
<wgt id='15083'>0.22179E+02</wgt>
<wgt id='15084'>0.22178E+02</wgt>
<wgt id='15085'>0.22169E+02</wgt>
<wgt id='15086'>0.22182E+02</wgt>
<wgt id='15087'>0.22165E+02</wgt>
<wgt id='15088'>0.22175E+02</wgt>
<wgt id='15089'>0.22176E+02</wgt>
<wgt id='15090'>0.22188E+02</wgt>
<wgt id='15091'>0.22185E+02</wgt>
<wgt id='15092'>0.22178E+02</wgt>
<wgt id='15093'>0.22181E+02</wgt>
<wgt id='15094'>0.22183E+02</wgt>
<wgt id='15095'>0.22190E+02</wgt>
<wgt id='15096'>0.22178E+02</wgt>
<wgt id='15097'>0.22184E+02</wgt>
<wgt id='15098'>0.22183E+02</wgt>
<wgt id='15099'>0.22179E+02</wgt>
<wgt id='15100'>0.22182E+02</wgt>
<wgt id='15101'>0.22183E+02</wgt>
<wgt id='15102'>0.22182E+02</wgt>
<wgt id='15103'>0.22184E+02</wgt>
<wgt id='15104'>0.22184E+02</wgt>
<wgt id='15105'>0.22184E+02</wgt>
<wgt id='15106'>0.22184E+02</wgt>
<wgt id='15107'>0.22182E+02</wgt>
<wgt id='1500'>0.23518E+02</wgt>
<wgt id='1501'>0.22457E+02</wgt>
<wgt id='1502'>0.23722E+02</wgt>
<wgt id='1503'>0.24138E+02</wgt>
<wgt id='1504'>0.22264E+02</wgt>
<wgt id='1505'>0.22645E+02</wgt>
<wgt id='1506'>0.23224E+02</wgt>
<wgt id='1507'>0.23475E+02</wgt>
<wgt id='1508'>0.23770E+02</wgt>
<wgt id='1509'>0.23205E+02</wgt>
<wgt id='1510'>0.24628E+02</wgt>
<wgt id='1511'>0.24149E+02</wgt>
<wgt id='1512'>0.23044E+02</wgt>
<wgt id='1513'>0.23591E+02</wgt>
<wgt id='1514'>0.25172E+02</wgt>
<wgt id='1515'>0.23513E+02</wgt>
<wgt id='1516'>0.23566E+02</wgt>
<wgt id='1517'>0.24574E+02</wgt>
<wgt id='1518'>0.23660E+02</wgt>
<wgt id='1519'>0.23123E+02</wgt>
<wgt id='1520'>0.23186E+02</wgt>
<wgt id='1521'>0.23120E+02</wgt>
<wgt id='1522'>0.23611E+02</wgt>
<wgt id='1523'>0.23430E+02</wgt>
<wgt id='1524'>0.23200E+02</wgt>
<wgt id='1525'>0.23447E+02</wgt>
<wgt id='1526'>0.22528E+02</wgt>
<wgt id='1527'>0.24357E+02</wgt>
<wgt id='1528'>0.24117E+02</wgt>
<wgt id='1529'>0.23830E+02</wgt>
<wgt id='1530'>0.22975E+02</wgt>
<wgt id='1531'>0.23330E+02</wgt>
<wgt id='1532'>0.23686E+02</wgt>
<wgt id='1533'>0.23286E+02</wgt>
<wgt id='1534'>0.22753E+02</wgt>
<wgt id='1535'>0.24710E+02</wgt>
<wgt id='1536'>0.23270E+02</wgt>
<wgt id='1537'>0.23841E+02</wgt>
<wgt id='1538'>0.23502E+02</wgt>
<wgt id='1539'>0.22756E+02</wgt>
<wgt id='1540'>0.23332E+02</wgt>
<wgt id='1541'>0.23133E+02</wgt>
<wgt id='1542'>0.22724E+02</wgt>
<wgt id='1543'>0.22872E+02</wgt>
<wgt id='1544'>0.23560E+02</wgt>
<wgt id='1545'>0.24379E+02</wgt>
<wgt id='1546'>0.23158E+02</wgt>
<wgt id='1547'>0.23526E+02</wgt>
<wgt id='1548'>0.23557E+02</wgt>
<wgt id='1549'>0.24004E+02</wgt>
<wgt id='1550'>0.23583E+02</wgt>
<wgt id='1551'>0.23356E+02</wgt>
<wgt id='1552'>0.23461E+02</wgt>
<wgt id='1553'>0.23061E+02</wgt>
<wgt id='1554'>0.23204E+02</wgt>
<wgt id='1555'>0.23566E+02</wgt>
<wgt id='1556'>0.24309E+02</wgt>
<wgt id='1557'>0.23134E+02</wgt>
<wgt id='1558'>0.23864E+02</wgt>
<wgt id='1559'>0.23689E+02</wgt>
<wgt id='1560'>0.23457E+02</wgt>
<wgt id='1561'>0.23642E+02</wgt>
<wgt id='1562'>0.23755E+02</wgt>
<wgt id='1563'>0.23160E+02</wgt>
<wgt id='1564'>0.24324E+02</wgt>
<wgt id='1565'>0.22975E+02</wgt>
<wgt id='1566'>0.23717E+02</wgt>
<wgt id='1567'>0.23795E+02</wgt>
<wgt id='1568'>0.23802E+02</wgt>
<wgt id='1569'>0.23358E+02</wgt>
<wgt id='1570'>0.23593E+02</wgt>
<wgt id='1571'>0.23051E+02</wgt>
<wgt id='1572'>0.23164E+02</wgt>
<wgt id='1573'>0.23261E+02</wgt>
<wgt id='1574'>0.23315E+02</wgt>
<wgt id='1575'>0.23701E+02</wgt>
<wgt id='1576'>0.23239E+02</wgt>
<wgt id='1577'>0.23086E+02</wgt>
<wgt id='1578'>0.22913E+02</wgt>
<wgt id='1579'>0.23337E+02</wgt>
<wgt id='1580'>0.23369E+02</wgt>
<wgt id='1581'>0.23691E+02</wgt>
<wgt id='1582'>0.23457E+02</wgt>
<wgt id='1583'>0.22740E+02</wgt>
<wgt id='1584'>0.23966E+02</wgt>
<wgt id='1585'>0.24030E+02</wgt>
<wgt id='1586'>0.23888E+02</wgt>
<wgt id='1587'>0.24196E+02</wgt>
<wgt id='1588'>0.23687E+02</wgt>
<wgt id='1589'>0.22784E+02</wgt>
<wgt id='1590'>0.23366E+02</wgt>
<wgt id='1591'>0.23406E+02</wgt>
<wgt id='1592'>0.22936E+02</wgt>
<wgt id='1593'>0.23814E+02</wgt>
<wgt id='1594'>0.23607E+02</wgt>
<wgt id='1595'>0.24907E+02</wgt>
<wgt id='1596'>0.23056E+02</wgt>
<wgt id='1597'>0.23129E+02</wgt>
<wgt id='1598'>0.23157E+02</wgt>
<wgt id='1599'>0.23249E+02</wgt>
<wgt id='1600'>0.24179E+02</wgt>
<wgt id='1601'>0.23149E+02</wgt>
<wgt id='1602'>0.23780E+02</wgt>
<wgt id='1700'>0.22096E+02</wgt>
<wgt id='1800'>0.27511E+02</wgt>
<wgt id='1850'>0.33163E+02</wgt>
<wgt id='1900'>0.30012E+02</wgt>
<wgt id='1950'>0.33313E+02</wgt>
</rwgt>
</event>
<event>
      4   9999  2.16956E+01  4.07279E+01 -1.00000E+00  1.42189E-01
      21    -1     0     0   502   501  0.000000000E+00  0.000000000E+00  4.987011909E+01  4.987011909E+01  0.000000000E+00  0.00000E+00  9.000E+00
      21    -1     0     0   511   502  0.000000000E+00  0.000000000E+00 -2.601929534E+02  2.601929534E+02  0.000000000E+00  0.00000E+00  9.000E+00
      25     1     1     2     0     0  4.050069609E+01  4.295796463E+00 -4.370806242E+01  1.385426875E+02  1.249996852E+02  0.00000E+00  9.000E+00
      21     1     1     2   511   501 -4.050069609E+01 -4.295796463E+00 -1.666147718E+02  1.715203849E+02  0.000000000E+00  0.00000E+00  9.000E+00
#rwgt            1           1   17.941306774560115                1         651           0
<rwgt>
<wgt id='1001'>0.21696E+02</wgt>
<wgt id='1002'>0.23902E+02</wgt>
<wgt id='1003'>0.19348E+02</wgt>
<wgt id='1004'>0.18470E+02</wgt>
<wgt id='1005'>0.20234E+02</wgt>
<wgt id='1006'>0.16562E+02</wgt>
<wgt id='1007'>0.25845E+02</wgt>
<wgt id='1008'>0.28681E+02</wgt>
<wgt id='1009'>0.22885E+02</wgt>
<wgt id='2000'>0.21696E+02</wgt>
<wgt id='2001'>0.21672E+02</wgt>
<wgt id='2002'>0.21791E+02</wgt>
<wgt id='2003'>0.21785E+02</wgt>
<wgt id='2004'>0.21722E+02</wgt>
<wgt id='2005'>0.21637E+02</wgt>
<wgt id='2006'>0.21630E+02</wgt>
<wgt id='2007'>0.21601E+02</wgt>
<wgt id='2008'>0.21654E+02</wgt>
<wgt id='2009'>0.21719E+02</wgt>
<wgt id='2010'>0.21678E+02</wgt>
<wgt id='2011'>0.21806E+02</wgt>
<wgt id='2012'>0.21822E+02</wgt>
<wgt id='2013'>0.21904E+02</wgt>
<wgt id='2014'>0.21778E+02</wgt>
<wgt id='2015'>0.21742E+02</wgt>
<wgt id='2016'>0.21639E+02</wgt>
<wgt id='2017'>0.21694E+02</wgt>
<wgt id='2018'>0.21782E+02</wgt>
<wgt id='2019'>0.21685E+02</wgt>
<wgt id='2020'>0.21751E+02</wgt>
<wgt id='2021'>0.21667E+02</wgt>
<wgt id='2022'>0.21701E+02</wgt>
<wgt id='2023'>0.21710E+02</wgt>
<wgt id='2024'>0.21709E+02</wgt>
<wgt id='2025'>0.21692E+02</wgt>
<wgt id='2026'>0.21692E+02</wgt>
<wgt id='2027'>0.21688E+02</wgt>
<wgt id='2028'>0.21691E+02</wgt>
<wgt id='2029'>0.21715E+02</wgt>
<wgt id='2030'>0.21701E+02</wgt>
<wgt id='2031'>0.21703E+02</wgt>
<wgt id='2032'>0.21693E+02</wgt>
<wgt id='2033'>0.21698E+02</wgt>
<wgt id='2034'>0.21708E+02</wgt>
<wgt id='2035'>0.21692E+02</wgt>
<wgt id='2036'>0.21700E+02</wgt>
<wgt id='2037'>0.21702E+02</wgt>
<wgt id='2038'>0.21694E+02</wgt>
<wgt id='2039'>0.21687E+02</wgt>
<wgt id='2040'>0.21698E+02</wgt>
<wgt id='2041'>0.21697E+02</wgt>
<wgt id='2042'>0.21689E+02</wgt>
<wgt id='2043'>0.21697E+02</wgt>
<wgt id='2044'>0.21702E+02</wgt>
<wgt id='2045'>0.21695E+02</wgt>
<wgt id='2046'>0.21702E+02</wgt>
<wgt id='2047'>0.21703E+02</wgt>
<wgt id='2048'>0.21694E+02</wgt>
<wgt id='2049'>0.21695E+02</wgt>
<wgt id='2050'>0.21701E+02</wgt>
<wgt id='2051'>0.21703E+02</wgt>
<wgt id='2052'>0.21694E+02</wgt>
<wgt id='2053'>0.21696E+02</wgt>
<wgt id='2054'>0.21695E+02</wgt>
<wgt id='2055'>0.21697E+02</wgt>
<wgt id='2056'>0.21695E+02</wgt>
<wgt id='2057'>0.21697E+02</wgt>
<wgt id='2058'>0.21699E+02</wgt>
<wgt id='2059'>0.21693E+02</wgt>
<wgt id='2060'>0.21697E+02</wgt>
<wgt id='2061'>0.21691E+02</wgt>
<wgt id='2062'>0.21695E+02</wgt>
<wgt id='2063'>0.21696E+02</wgt>
<wgt id='2064'>0.21691E+02</wgt>
<wgt id='2065'>0.21697E+02</wgt>
<wgt id='2066'>0.21692E+02</wgt>
<wgt id='2067'>0.21696E+02</wgt>
<wgt id='2068'>0.21697E+02</wgt>
<wgt id='2069'>0.21694E+02</wgt>
<wgt id='2070'>0.21695E+02</wgt>
<wgt id='2071'>0.21690E+02</wgt>
<wgt id='2072'>0.21697E+02</wgt>
<wgt id='2073'>0.21696E+02</wgt>
<wgt id='2074'>0.21693E+02</wgt>
<wgt id='2075'>0.21695E+02</wgt>
<wgt id='2076'>0.21694E+02</wgt>
<wgt id='2077'>0.21694E+02</wgt>
<wgt id='2078'>0.21697E+02</wgt>
<wgt id='2079'>0.21697E+02</wgt>
<wgt id='2080'>0.21695E+02</wgt>
<wgt id='2081'>0.21697E+02</wgt>
<wgt id='2082'>0.21695E+02</wgt>
<wgt id='2083'>0.21695E+02</wgt>
<wgt id='2084'>0.21696E+02</wgt>
<wgt id='2085'>0.21696E+02</wgt>
<wgt id='2086'>0.21693E+02</wgt>
<wgt id='2087'>0.21694E+02</wgt>
<wgt id='2088'>0.21697E+02</wgt>
<wgt id='2089'>0.21695E+02</wgt>
<wgt id='2090'>0.21696E+02</wgt>
<wgt id='2091'>0.21694E+02</wgt>
<wgt id='2092'>0.21696E+02</wgt>
<wgt id='2093'>0.21695E+02</wgt>
<wgt id='2094'>0.21697E+02</wgt>
<wgt id='2095'>0.21696E+02</wgt>
<wgt id='2096'>0.21695E+02</wgt>
<wgt id='2097'>0.21696E+02</wgt>
<wgt id='2098'>0.21695E+02</wgt>
<wgt id='2099'>0.21696E+02</wgt>
<wgt id='2100'>0.21696E+02</wgt>
<wgt id='2101'>0.21157E+02</wgt>
<wgt id='2102'>0.22158E+02</wgt>
<wgt id='2104'>0.19238E+02</wgt>
<wgt id='2105'>0.19650E+02</wgt>
<wgt id='2106'>0.20145E+02</wgt>
<wgt id='2107'>0.20702E+02</wgt>
<wgt id='2108'>0.21491E+02</wgt>
<wgt id='2109'>0.21990E+02</wgt>
<wgt id='2110'>0.22628E+02</wgt>
<wgt id='2111'>0.23127E+02</wgt>
<wgt id='3000'>0.22615E+02</wgt>
<wgt id='3001'>0.22700E+02</wgt>
<wgt id='3002'>0.22519E+02</wgt>
<wgt id='3003'>0.22706E+02</wgt>
<wgt id='3004'>0.22666E+02</wgt>
<wgt id='3005'>0.22730E+02</wgt>
<wgt id='3006'>0.22651E+02</wgt>
<wgt id='3007'>0.22668E+02</wgt>
<wgt id='3008'>0.22543E+02</wgt>
<wgt id='3009'>0.22589E+02</wgt>
<wgt id='3010'>0.22524E+02</wgt>
<wgt id='3011'>0.22671E+02</wgt>
<wgt id='3012'>0.22789E+02</wgt>
<wgt id='3013'>0.22419E+02</wgt>
<wgt id='3014'>0.22712E+02</wgt>
<wgt id='3015'>0.22708E+02</wgt>
<wgt id='3016'>0.22624E+02</wgt>
<wgt id='3017'>0.22719E+02</wgt>
<wgt id='3018'>0.22638E+02</wgt>
<wgt id='3019'>0.22539E+02</wgt>
<wgt id='3020'>0.22611E+02</wgt>
<wgt id='3021'>0.22568E+02</wgt>
<wgt id='3022'>0.22611E+02</wgt>
<wgt id='3023'>0.22599E+02</wgt>
<wgt id='3024'>0.22626E+02</wgt>
<wgt id='3025'>0.22621E+02</wgt>
<wgt id='3026'>0.22612E+02</wgt>
<wgt id='3027'>0.22624E+02</wgt>
<wgt id='3028'>0.22612E+02</wgt>
<wgt id='3029'>0.22619E+02</wgt>
<wgt id='3030'>0.22635E+02</wgt>
<wgt id='3031'>0.22623E+02</wgt>
<wgt id='3032'>0.22613E+02</wgt>
<wgt id='3033'>0.22622E+02</wgt>
<wgt id='3034'>0.22616E+02</wgt>
<wgt id='3035'>0.22633E+02</wgt>
<wgt id='3036'>0.22622E+02</wgt>
<wgt id='3037'>0.22616E+02</wgt>
<wgt id='3038'>0.22617E+02</wgt>
<wgt id='3039'>0.22611E+02</wgt>
<wgt id='3040'>0.22612E+02</wgt>
<wgt id='3041'>0.22619E+02</wgt>
<wgt id='3042'>0.22609E+02</wgt>
<wgt id='3043'>0.22610E+02</wgt>
<wgt id='3044'>0.22616E+02</wgt>
<wgt id='3045'>0.22622E+02</wgt>
<wgt id='3046'>0.22622E+02</wgt>
<wgt id='3047'>0.22613E+02</wgt>
<wgt id='3048'>0.22618E+02</wgt>
<wgt id='3049'>0.22614E+02</wgt>
<wgt id='3050'>0.22613E+02</wgt>
<wgt id='3051'>0.22624E+02</wgt>
<wgt id='3052'>0.22612E+02</wgt>
<wgt id='3053'>0.22612E+02</wgt>
<wgt id='3054'>0.22613E+02</wgt>
<wgt id='3055'>0.22610E+02</wgt>
<wgt id='3056'>0.22617E+02</wgt>
<wgt id='3057'>0.22610E+02</wgt>
<wgt id='3058'>0.22611E+02</wgt>
<wgt id='3059'>0.22615E+02</wgt>
<wgt id='3060'>0.22616E+02</wgt>
<wgt id='3061'>0.22617E+02</wgt>
<wgt id='3062'>0.22618E+02</wgt>
<wgt id='3063'>0.22621E+02</wgt>
<wgt id='3064'>0.22614E+02</wgt>
<wgt id='3065'>0.22617E+02</wgt>
<wgt id='3066'>0.22617E+02</wgt>
<wgt id='3067'>0.22611E+02</wgt>
<wgt id='3068'>0.22615E+02</wgt>
<wgt id='3069'>0.22612E+02</wgt>
<wgt id='3070'>0.22615E+02</wgt>
<wgt id='3071'>0.22615E+02</wgt>
<wgt id='3072'>0.22618E+02</wgt>
<wgt id='3073'>0.22612E+02</wgt>
<wgt id='3074'>0.22619E+02</wgt>
<wgt id='3075'>0.22617E+02</wgt>
<wgt id='3076'>0.22613E+02</wgt>
<wgt id='3077'>0.22615E+02</wgt>
<wgt id='3078'>0.22618E+02</wgt>
<wgt id='3079'>0.22615E+02</wgt>
<wgt id='3080'>0.22615E+02</wgt>
<wgt id='3081'>0.22615E+02</wgt>
<wgt id='3082'>0.22614E+02</wgt>
<wgt id='3083'>0.22615E+02</wgt>
<wgt id='3084'>0.22614E+02</wgt>
<wgt id='3085'>0.22615E+02</wgt>
<wgt id='3086'>0.22615E+02</wgt>
<wgt id='3087'>0.22614E+02</wgt>
<wgt id='3088'>0.22615E+02</wgt>
<wgt id='3089'>0.22615E+02</wgt>
<wgt id='3090'>0.22616E+02</wgt>
<wgt id='3091'>0.22616E+02</wgt>
<wgt id='3092'>0.22616E+02</wgt>
<wgt id='3093'>0.22615E+02</wgt>
<wgt id='3094'>0.22617E+02</wgt>
<wgt id='3095'>0.22616E+02</wgt>
<wgt id='3096'>0.22614E+02</wgt>
<wgt id='3097'>0.22613E+02</wgt>
<wgt id='3098'>0.22615E+02</wgt>
<wgt id='3099'>0.22616E+02</wgt>
<wgt id='3100'>0.22616E+02</wgt>
<wgt id='3101'>0.22083E+02</wgt>
<wgt id='3102'>0.23231E+02</wgt>
<wgt id='5000'>0.21109E+02</wgt>
<wgt id='5001'>0.21018E+02</wgt>
<wgt id='5002'>0.21074E+02</wgt>
<wgt id='5003'>0.20960E+02</wgt>
<wgt id='5004'>0.21163E+02</wgt>
<wgt id='5005'>0.20612E+02</wgt>
<wgt id='5006'>0.21471E+02</wgt>
<wgt id='5007'>0.21240E+02</wgt>
<wgt id='5008'>0.20823E+02</wgt>
<wgt id='5009'>0.21380E+02</wgt>
<wgt id='5010'>0.20963E+02</wgt>
<wgt id='5011'>0.21066E+02</wgt>
<wgt id='5012'>0.21096E+02</wgt>
<wgt id='5013'>0.20660E+02</wgt>
<wgt id='5014'>0.21102E+02</wgt>
<wgt id='5015'>0.21274E+02</wgt>
<wgt id='5016'>0.20603E+02</wgt>
<wgt id='5017'>0.21167E+02</wgt>
<wgt id='5018'>0.21046E+02</wgt>
<wgt id='5019'>0.21020E+02</wgt>
<wgt id='5020'>0.21177E+02</wgt>
<wgt id='5021'>0.21185E+02</wgt>
<wgt id='5022'>0.21060E+02</wgt>
<wgt id='5023'>0.21063E+02</wgt>
<wgt id='5024'>0.21153E+02</wgt>
<wgt id='5025'>0.21079E+02</wgt>
<wgt id='5026'>0.21133E+02</wgt>
<wgt id='5027'>0.21336E+02</wgt>
<wgt id='5028'>0.20728E+02</wgt>
<wgt id='5029'>0.20702E+02</wgt>
<wgt id='5030'>0.21353E+02</wgt>
<wgt id='5031'>0.20864E+02</wgt>
<wgt id='5032'>0.21462E+02</wgt>
<wgt id='5033'>0.20939E+02</wgt>
<wgt id='5034'>0.21255E+02</wgt>
<wgt id='5035'>0.20771E+02</wgt>
<wgt id='5036'>0.21381E+02</wgt>
<wgt id='5037'>0.21101E+02</wgt>
<wgt id='5038'>0.21106E+02</wgt>
<wgt id='5039'>0.21463E+02</wgt>
<wgt id='5040'>0.20927E+02</wgt>
<wgt id='5041'>0.20853E+02</wgt>
<wgt id='5042'>0.21156E+02</wgt>
<wgt id='5043'>0.21342E+02</wgt>
<wgt id='5044'>0.20521E+02</wgt>
<wgt id='5045'>0.21765E+02</wgt>
<wgt id='5046'>0.20915E+02</wgt>
<wgt id='5047'>0.21265E+02</wgt>
<wgt id='5048'>0.21201E+02</wgt>
<wgt id='5049'>0.21129E+02</wgt>
<wgt id='5050'>0.21148E+02</wgt>
<wgt id='5051'>0.21176E+02</wgt>
<wgt id='5052'>0.21089E+02</wgt>
<wgt id='5053'>0.20945E+02</wgt>
<wgt id='5054'>0.21654E+02</wgt>
<wgt id='5055'>0.20973E+02</wgt>
<wgt id='5056'>0.21224E+02</wgt>
<wgt id='5060'>0.20647E+02</wgt>
<wgt id='5070'>0.21496E+02</wgt>
<wgt id='4000'>0.22267E+02</wgt>
<wgt id='4001'>0.22292E+02</wgt>
<wgt id='4002'>0.22341E+02</wgt>
<wgt id='4003'>0.22836E+02</wgt>
<wgt id='4004'>0.22010E+02</wgt>
<wgt id='4005'>0.22354E+02</wgt>
<wgt id='4006'>0.22197E+02</wgt>
<wgt id='4007'>0.22540E+02</wgt>
<wgt id='4008'>0.22144E+02</wgt>
<wgt id='4009'>0.21769E+02</wgt>
<wgt id='4010'>0.22663E+02</wgt>
<wgt id='4011'>0.22616E+02</wgt>
<wgt id='4012'>0.22068E+02</wgt>
<wgt id='4013'>0.21404E+02</wgt>
<wgt id='4014'>0.22764E+02</wgt>
<wgt id='4015'>0.22454E+02</wgt>
<wgt id='4016'>0.22143E+02</wgt>
<wgt id='4017'>0.22063E+02</wgt>
<wgt id='4018'>0.22510E+02</wgt>
<wgt id='4019'>0.22560E+02</wgt>
<wgt id='4020'>0.21937E+02</wgt>
<wgt id='4021'>0.22324E+02</wgt>
<wgt id='4022'>0.22141E+02</wgt>
<wgt id='4023'>0.22147E+02</wgt>
<wgt id='4024'>0.22373E+02</wgt>
<wgt id='4025'>0.21926E+02</wgt>
<wgt id='4026'>0.22578E+02</wgt>
<wgt id='4027'>0.22186E+02</wgt>
<wgt id='4028'>0.22375E+02</wgt>
<wgt id='4029'>0.22095E+02</wgt>
<wgt id='4030'>0.22326E+02</wgt>
<wgt id='4031'>0.22301E+02</wgt>
<wgt id='4032'>0.22222E+02</wgt>
<wgt id='4033'>0.22256E+02</wgt>
<wgt id='4034'>0.22284E+02</wgt>
<wgt id='4035'>0.22615E+02</wgt>
<wgt id='4036'>0.21931E+02</wgt>
<wgt id='4037'>0.22463E+02</wgt>
<wgt id='4038'>0.21939E+02</wgt>
<wgt id='4039'>0.22256E+02</wgt>
<wgt id='4040'>0.22230E+02</wgt>
<wgt id='4041'>0.22463E+02</wgt>
<wgt id='4042'>0.22083E+02</wgt>
<wgt id='4043'>0.22475E+02</wgt>
<wgt id='4044'>0.22024E+02</wgt>
<wgt id='4045'>0.22005E+02</wgt>
<wgt id='4046'>0.22148E+02</wgt>
<wgt id='4047'>0.21950E+02</wgt>
<wgt id='4048'>0.22536E+02</wgt>
<wgt id='4049'>0.22393E+02</wgt>
<wgt id='4050'>0.21791E+02</wgt>
<wgt id='4051'>0.22218E+02</wgt>
<wgt id='4052'>0.22203E+02</wgt>
<wgt id='4053'>0.21679E+02</wgt>
<wgt id='4054'>0.22432E+02</wgt>
<wgt id='4055'>0.22082E+02</wgt>
<wgt id='4056'>0.22433E+02</wgt>
<wgt id='4060'>0.21694E+02</wgt>
<wgt id='4070'>0.22785E+02</wgt>
<wgt id='4080'>0.21821E+02</wgt>
<wgt id='6000'>0.22664E+02</wgt>
<wgt id='6001'>0.22670E+02</wgt>
<wgt id='6002'>0.22658E+02</wgt>
<wgt id='6003'>0.22674E+02</wgt>
<wgt id='6004'>0.22658E+02</wgt>
<wgt id='6005'>0.22729E+02</wgt>
<wgt id='6006'>0.22605E+02</wgt>
<wgt id='6007'>0.22565E+02</wgt>
<wgt id='6008'>0.22776E+02</wgt>
<wgt id='6009'>0.22730E+02</wgt>
<wgt id='6010'>0.22601E+02</wgt>
<wgt id='6011'>0.22711E+02</wgt>
<wgt id='6012'>0.22562E+02</wgt>
<wgt id='6013'>0.22641E+02</wgt>
<wgt id='6014'>0.22705E+02</wgt>
<wgt id='6015'>0.22592E+02</wgt>
<wgt id='6016'>0.22706E+02</wgt>
<wgt id='6017'>0.22542E+02</wgt>
<wgt id='6018'>0.22809E+02</wgt>
<wgt id='6019'>0.22705E+02</wgt>
<wgt id='6020'>0.22629E+02</wgt>
<wgt id='6021'>0.22614E+02</wgt>
<wgt id='6022'>0.22732E+02</wgt>
<wgt id='6023'>0.22507E+02</wgt>
<wgt id='6024'>0.22774E+02</wgt>
<wgt id='6025'>0.22380E+02</wgt>
<wgt id='6026'>0.22921E+02</wgt>
<wgt id='6027'>0.22722E+02</wgt>
<wgt id='6028'>0.22665E+02</wgt>
<wgt id='6029'>0.22809E+02</wgt>
<wgt id='6030'>0.22496E+02</wgt>
<wgt id='6031'>0.22695E+02</wgt>
<wgt id='6032'>0.22623E+02</wgt>
<wgt id='6033'>0.22707E+02</wgt>
<wgt id='6034'>0.22619E+02</wgt>
<wgt id='6035'>0.22648E+02</wgt>
<wgt id='6036'>0.22744E+02</wgt>
<wgt id='6037'>0.22706E+02</wgt>
<wgt id='6038'>0.22659E+02</wgt>
<wgt id='6039'>0.22646E+02</wgt>
<wgt id='6040'>0.22684E+02</wgt>
<wgt id='6041'>0.22618E+02</wgt>
<wgt id='6042'>0.22721E+02</wgt>
<wgt id='6043'>0.22945E+02</wgt>
<wgt id='6044'>0.22519E+02</wgt>
<wgt id='6045'>0.22646E+02</wgt>
<wgt id='6046'>0.22713E+02</wgt>
<wgt id='6047'>0.22591E+02</wgt>
<wgt id='6048'>0.22550E+02</wgt>
<wgt id='6049'>0.22631E+02</wgt>
<wgt id='6050'>0.22666E+02</wgt>
<wgt id='7000'>0.21261E+02</wgt>
<wgt id='7001'>0.21249E+02</wgt>
<wgt id='7002'>0.21277E+02</wgt>
<wgt id='7003'>0.21327E+02</wgt>
<wgt id='7004'>0.21195E+02</wgt>
<wgt id='7005'>0.21301E+02</wgt>
<wgt id='7006'>0.21245E+02</wgt>
<wgt id='7007'>0.21175E+02</wgt>
<wgt id='7008'>0.21347E+02</wgt>
<wgt id='7009'>0.21294E+02</wgt>
<wgt id='7010'>0.21229E+02</wgt>
<wgt id='7011'>0.21067E+02</wgt>
<wgt id='7012'>0.21346E+02</wgt>
<wgt id='7013'>0.21264E+02</wgt>
<wgt id='7014'>0.21258E+02</wgt>
<wgt id='7015'>0.21204E+02</wgt>
<wgt id='7016'>0.21324E+02</wgt>
<wgt id='7017'>0.21225E+02</wgt>
<wgt id='7018'>0.21280E+02</wgt>
<wgt id='7019'>0.21232E+02</wgt>
<wgt id='7020'>0.21301E+02</wgt>
<wgt id='7021'>0.21255E+02</wgt>
<wgt id='7022'>0.21265E+02</wgt>
<wgt id='7023'>0.21508E+02</wgt>
<wgt id='7024'>0.21023E+02</wgt>
<wgt id='7025'>0.21357E+02</wgt>
<wgt id='7026'>0.21027E+02</wgt>
<wgt id='7027'>0.21354E+02</wgt>
<wgt id='7028'>0.21217E+02</wgt>
<wgt id='7029'>0.21161E+02</wgt>
<wgt id='7030'>0.21529E+02</wgt>
<wgt id='7031'>0.21260E+02</wgt>
<wgt id='7032'>0.21268E+02</wgt>
<wgt id='7033'>0.21230E+02</wgt>
<wgt id='7034'>0.21331E+02</wgt>
<wgt id='7035'>0.21320E+02</wgt>
<wgt id='7036'>0.21244E+02</wgt>
<wgt id='7037'>0.21271E+02</wgt>
<wgt id='7038'>0.21261E+02</wgt>
<wgt id='7039'>0.21244E+02</wgt>
<wgt id='7040'>0.21273E+02</wgt>
<wgt id='7041'>0.21221E+02</wgt>
<wgt id='7042'>0.21283E+02</wgt>
<wgt id='7043'>0.21280E+02</wgt>
<wgt id='7044'>0.21152E+02</wgt>
<wgt id='7045'>0.21090E+02</wgt>
<wgt id='7046'>0.21294E+02</wgt>
<wgt id='7047'>0.21266E+02</wgt>
<wgt id='7048'>0.21249E+02</wgt>
<wgt id='7049'>0.21244E+02</wgt>
<wgt id='7050'>0.21200E+02</wgt>
<wgt id='7060'>0.32401E+02</wgt>
<wgt id='8000'>0.21503E+02</wgt>
<wgt id='8001'>0.21497E+02</wgt>
<wgt id='8002'>0.21509E+02</wgt>
<wgt id='8003'>0.21505E+02</wgt>
<wgt id='8004'>0.21502E+02</wgt>
<wgt id='8005'>0.21452E+02</wgt>
<wgt id='8006'>0.21488E+02</wgt>
<wgt id='8007'>0.21474E+02</wgt>
<wgt id='8008'>0.21540E+02</wgt>
<wgt id='8009'>0.21580E+02</wgt>
<wgt id='8010'>0.21503E+02</wgt>
<wgt id='8011'>0.21491E+02</wgt>
<wgt id='8012'>0.21479E+02</wgt>
<wgt id='8013'>0.21499E+02</wgt>
<wgt id='8014'>0.21489E+02</wgt>
<wgt id='8015'>0.21487E+02</wgt>
<wgt id='8016'>0.21507E+02</wgt>
<wgt id='8017'>0.21503E+02</wgt>
<wgt id='8018'>0.21498E+02</wgt>
<wgt id='8019'>0.21542E+02</wgt>
<wgt id='8020'>0.21428E+02</wgt>
<wgt id='8021'>0.21505E+02</wgt>
<wgt id='8022'>0.21365E+02</wgt>
<wgt id='8023'>0.21530E+02</wgt>
<wgt id='8024'>0.21555E+02</wgt>
<wgt id='8025'>0.21582E+02</wgt>
<wgt id='8026'>0.21548E+02</wgt>
<wgt id='8027'>0.21463E+02</wgt>
<wgt id='8028'>0.21523E+02</wgt>
<wgt id='8029'>0.21354E+02</wgt>
<wgt id='8500'>0.22352E+02</wgt>
<wgt id='8501'>0.22310E+02</wgt>
<wgt id='8502'>0.22580E+02</wgt>
<wgt id='8503'>0.22511E+02</wgt>
<wgt id='8504'>0.22297E+02</wgt>
<wgt id='8505'>0.22240E+02</wgt>
<wgt id='8506'>0.22290E+02</wgt>
<wgt id='8507'>0.22488E+02</wgt>
<wgt id='8508'>0.22693E+02</wgt>
<wgt id='8509'>0.22202E+02</wgt>
<wgt id='8510'>0.22685E+02</wgt>
<wgt id='8511'>0.22367E+02</wgt>
<wgt id='8512'>0.22087E+02</wgt>
<wgt id='8513'>0.22382E+02</wgt>
<wgt id='8514'>0.22266E+02</wgt>
<wgt id='8515'>0.22355E+02</wgt>
<wgt id='8516'>0.22424E+02</wgt>
<wgt id='8517'>0.22322E+02</wgt>
<wgt id='8518'>0.22289E+02</wgt>
<wgt id='8519'>0.22288E+02</wgt>
<wgt id='8520'>0.22372E+02</wgt>
<wgt id='8521'>0.22261E+02</wgt>
<wgt id='8522'>0.22362E+02</wgt>
<wgt id='8523'>0.22316E+02</wgt>
<wgt id='8524'>0.22351E+02</wgt>
<wgt id='8525'>0.22328E+02</wgt>
<wgt id='8526'>0.22317E+02</wgt>
<wgt id='8527'>0.22350E+02</wgt>
<wgt id='8528'>0.22295E+02</wgt>
<wgt id='8529'>0.22338E+02</wgt>
<wgt id='8530'>0.22354E+02</wgt>
<wgt id='8531'>0.22344E+02</wgt>
<wgt id='8532'>0.22356E+02</wgt>
<wgt id='8533'>0.22307E+02</wgt>
<wgt id='8534'>0.22362E+02</wgt>
<wgt id='8535'>0.22402E+02</wgt>
<wgt id='8536'>0.22337E+02</wgt>
<wgt id='8537'>0.22361E+02</wgt>
<wgt id='8538'>0.22330E+02</wgt>
<wgt id='8539'>0.22357E+02</wgt>
<wgt id='8540'>0.22357E+02</wgt>
<wgt id='8541'>0.22363E+02</wgt>
<wgt id='8542'>0.22369E+02</wgt>
<wgt id='8543'>0.22333E+02</wgt>
<wgt id='8544'>0.22376E+02</wgt>
<wgt id='8545'>0.22371E+02</wgt>
<wgt id='8546'>0.22373E+02</wgt>
<wgt id='8547'>0.22333E+02</wgt>
<wgt id='8548'>0.22330E+02</wgt>
<wgt id='8549'>0.22353E+02</wgt>
<wgt id='8550'>0.22356E+02</wgt>
<wgt id='8551'>0.22331E+02</wgt>
<wgt id='8552'>0.22357E+02</wgt>
<wgt id='8553'>0.22343E+02</wgt>
<wgt id='8554'>0.22342E+02</wgt>
<wgt id='8555'>0.22355E+02</wgt>
<wgt id='8556'>0.22351E+02</wgt>
<wgt id='8557'>0.22347E+02</wgt>
<wgt id='8558'>0.22376E+02</wgt>
<wgt id='8559'>0.22341E+02</wgt>
<wgt id='8560'>0.22328E+02</wgt>
<wgt id='8561'>0.22350E+02</wgt>
<wgt id='8562'>0.22336E+02</wgt>
<wgt id='8563'>0.22353E+02</wgt>
<wgt id='8564'>0.22348E+02</wgt>
<wgt id='8565'>0.22351E+02</wgt>
<wgt id='8566'>0.22348E+02</wgt>
<wgt id='8567'>0.22351E+02</wgt>
<wgt id='8568'>0.22360E+02</wgt>
<wgt id='8569'>0.22358E+02</wgt>
<wgt id='8570'>0.22350E+02</wgt>
<wgt id='8571'>0.22343E+02</wgt>
<wgt id='8572'>0.22346E+02</wgt>
<wgt id='8573'>0.22343E+02</wgt>
<wgt id='8574'>0.22357E+02</wgt>
<wgt id='8575'>0.22349E+02</wgt>
<wgt id='8576'>0.22350E+02</wgt>
<wgt id='8577'>0.22351E+02</wgt>
<wgt id='8578'>0.22354E+02</wgt>
<wgt id='8579'>0.22365E+02</wgt>
<wgt id='8580'>0.22352E+02</wgt>
<wgt id='8581'>0.22356E+02</wgt>
<wgt id='8582'>0.22339E+02</wgt>
<wgt id='8583'>0.22361E+02</wgt>
<wgt id='8584'>0.22357E+02</wgt>
<wgt id='8585'>0.22356E+02</wgt>
<wgt id='8586'>0.22362E+02</wgt>
<wgt id='8587'>0.22349E+02</wgt>
<wgt id='8588'>0.22347E+02</wgt>
<wgt id='8589'>0.22353E+02</wgt>
<wgt id='8590'>0.22350E+02</wgt>
<wgt id='8591'>0.22349E+02</wgt>
<wgt id='8592'>0.22351E+02</wgt>
<wgt id='8593'>0.22344E+02</wgt>
<wgt id='8594'>0.22355E+02</wgt>
<wgt id='8595'>0.22354E+02</wgt>
<wgt id='8596'>0.22347E+02</wgt>
<wgt id='8597'>0.22355E+02</wgt>
<wgt id='8598'>0.22357E+02</wgt>
<wgt id='8599'>0.22355E+02</wgt>
<wgt id='8600'>0.22352E+02</wgt>
<wgt id='8601'>0.21937E+02</wgt>
<wgt id='8602'>0.22708E+02</wgt>
<wgt id='9000'>0.21226E+02</wgt>
<wgt id='9001'>0.21266E+02</wgt>
<wgt id='9002'>0.21337E+02</wgt>
<wgt id='9003'>0.21033E+02</wgt>
<wgt id='9004'>0.21186E+02</wgt>
<wgt id='9005'>0.21337E+02</wgt>
<wgt id='9006'>0.21162E+02</wgt>
<wgt id='9007'>0.21228E+02</wgt>
<wgt id='9008'>0.21271E+02</wgt>
<wgt id='9009'>0.21213E+02</wgt>
<wgt id='9010'>0.21194E+02</wgt>
<wgt id='9011'>0.21455E+02</wgt>
<wgt id='9012'>0.20948E+02</wgt>
<wgt id='9013'>0.20941E+02</wgt>
<wgt id='9014'>0.20973E+02</wgt>
<wgt id='9015'>0.21201E+02</wgt>
<wgt id='9016'>0.21302E+02</wgt>
<wgt id='9017'>0.21241E+02</wgt>
<wgt id='9018'>0.21225E+02</wgt>
<wgt id='9019'>0.21206E+02</wgt>
<wgt id='9020'>0.21313E+02</wgt>
<wgt id='9021'>0.21220E+02</wgt>
<wgt id='9022'>0.21251E+02</wgt>
<wgt id='9023'>0.21197E+02</wgt>
<wgt id='9024'>0.21195E+02</wgt>
<wgt id='9025'>0.21256E+02</wgt>
<wgt id='9026'>0.21237E+02</wgt>
<wgt id='9027'>0.21204E+02</wgt>
<wgt id='9028'>0.21242E+02</wgt>
<wgt id='9029'>0.21246E+02</wgt>
<wgt id='9030'>0.21238E+02</wgt>
<wgt id='9031'>0.21221E+02</wgt>
<wgt id='9032'>0.21239E+02</wgt>
<wgt id='9033'>0.21253E+02</wgt>
<wgt id='9034'>0.21211E+02</wgt>
<wgt id='9035'>0.21261E+02</wgt>
<wgt id='9036'>0.21223E+02</wgt>
<wgt id='9037'>0.21246E+02</wgt>
<wgt id='9038'>0.21225E+02</wgt>
<wgt id='9039'>0.21226E+02</wgt>
<wgt id='9040'>0.21200E+02</wgt>
<wgt id='9041'>0.21216E+02</wgt>
<wgt id='9042'>0.21221E+02</wgt>
<wgt id='9043'>0.21209E+02</wgt>
<wgt id='9044'>0.21232E+02</wgt>
<wgt id='9045'>0.21221E+02</wgt>
<wgt id='9046'>0.21196E+02</wgt>
<wgt id='9047'>0.21214E+02</wgt>
<wgt id='9048'>0.21233E+02</wgt>
<wgt id='9049'>0.21215E+02</wgt>
<wgt id='9050'>0.21231E+02</wgt>
<wgt id='9051'>0.21233E+02</wgt>
<wgt id='9052'>0.21230E+02</wgt>
<wgt id='9053'>0.21229E+02</wgt>
<wgt id='9054'>0.21214E+02</wgt>
<wgt id='9055'>0.21222E+02</wgt>
<wgt id='9056'>0.21246E+02</wgt>
<wgt id='9057'>0.21224E+02</wgt>
<wgt id='9058'>0.21211E+02</wgt>
<wgt id='9059'>0.21216E+02</wgt>
<wgt id='9060'>0.21219E+02</wgt>
<wgt id='9061'>0.21229E+02</wgt>
<wgt id='9062'>0.21229E+02</wgt>
<wgt id='9063'>0.21235E+02</wgt>
<wgt id='9064'>0.21221E+02</wgt>
<wgt id='9065'>0.21225E+02</wgt>
<wgt id='9066'>0.21227E+02</wgt>
<wgt id='9067'>0.21233E+02</wgt>
<wgt id='9068'>0.21233E+02</wgt>
<wgt id='9069'>0.21237E+02</wgt>
<wgt id='9070'>0.21223E+02</wgt>
<wgt id='9071'>0.21237E+02</wgt>
<wgt id='9072'>0.21238E+02</wgt>
<wgt id='9073'>0.21220E+02</wgt>
<wgt id='9074'>0.21229E+02</wgt>
<wgt id='9075'>0.21225E+02</wgt>
<wgt id='9076'>0.21224E+02</wgt>
<wgt id='9077'>0.21228E+02</wgt>
<wgt id='9078'>0.21227E+02</wgt>
<wgt id='9079'>0.21222E+02</wgt>
<wgt id='9080'>0.21240E+02</wgt>
<wgt id='9081'>0.21223E+02</wgt>
<wgt id='9082'>0.21230E+02</wgt>
<wgt id='9083'>0.21219E+02</wgt>
<wgt id='9084'>0.21220E+02</wgt>
<wgt id='9085'>0.21220E+02</wgt>
<wgt id='9086'>0.21228E+02</wgt>
<wgt id='9087'>0.21213E+02</wgt>
<wgt id='9088'>0.21221E+02</wgt>
<wgt id='9089'>0.21221E+02</wgt>
<wgt id='9090'>0.21229E+02</wgt>
<wgt id='9091'>0.21224E+02</wgt>
<wgt id='9092'>0.21225E+02</wgt>
<wgt id='9093'>0.21222E+02</wgt>
<wgt id='9094'>0.21224E+02</wgt>
<wgt id='9095'>0.21228E+02</wgt>
<wgt id='9096'>0.21222E+02</wgt>
<wgt id='9097'>0.21227E+02</wgt>
<wgt id='9098'>0.21225E+02</wgt>
<wgt id='9099'>0.21221E+02</wgt>
<wgt id='9100'>0.21225E+02</wgt>
<wgt id='9101'>0.20915E+02</wgt>
<wgt id='9102'>0.21468E+02</wgt>
<wgt id='10000'>0.22349E+02</wgt>
<wgt id='10001'>0.22450E+02</wgt>
<wgt id='10002'>0.22360E+02</wgt>
<wgt id='10003'>0.22356E+02</wgt>
<wgt id='10004'>0.22434E+02</wgt>
<wgt id='10005'>0.22994E+02</wgt>
<wgt id='10006'>0.22353E+02</wgt>
<wgt id='10007'>0.22345E+02</wgt>
<wgt id='10008'>0.22377E+02</wgt>
<wgt id='10009'>0.22311E+02</wgt>
<wgt id='10010'>0.22353E+02</wgt>
<wgt id='10011'>0.22325E+02</wgt>
<wgt id='10012'>0.22314E+02</wgt>
<wgt id='10013'>0.22342E+02</wgt>
<wgt id='10014'>0.22360E+02</wgt>
<wgt id='10015'>0.22375E+02</wgt>
<wgt id='10016'>0.22360E+02</wgt>
<wgt id='10017'>0.22213E+02</wgt>
<wgt id='10018'>0.22369E+02</wgt>
<wgt id='10019'>0.22307E+02</wgt>
<wgt id='10020'>0.22364E+02</wgt>
<wgt id='10021'>0.22353E+02</wgt>
<wgt id='10022'>0.22344E+02</wgt>
<wgt id='10023'>0.22361E+02</wgt>
<wgt id='10024'>0.22353E+02</wgt>
<wgt id='10025'>0.22336E+02</wgt>
<wgt id='10026'>0.22344E+02</wgt>
<wgt id='10027'>0.22342E+02</wgt>
<wgt id='10028'>0.22382E+02</wgt>
<wgt id='10029'>0.22371E+02</wgt>
<wgt id='10030'>0.22339E+02</wgt>
<wgt id='10031'>0.21937E+02</wgt>
<wgt id='10032'>0.22708E+02</wgt>
<wgt id='11000'>0.21222E+02</wgt>
<wgt id='11001'>0.21243E+02</wgt>
<wgt id='11002'>0.21294E+02</wgt>
<wgt id='11003'>0.21200E+02</wgt>
<wgt id='11004'>0.21289E+02</wgt>
<wgt id='11005'>0.20934E+02</wgt>
<wgt id='11006'>0.21215E+02</wgt>
<wgt id='11007'>0.21179E+02</wgt>
<wgt id='11008'>0.21181E+02</wgt>
<wgt id='11009'>0.21121E+02</wgt>
<wgt id='11010'>0.21275E+02</wgt>
<wgt id='11011'>0.21100E+02</wgt>
<wgt id='11012'>0.21240E+02</wgt>
<wgt id='11013'>0.21306E+02</wgt>
<wgt id='11014'>0.21155E+02</wgt>
<wgt id='11015'>0.21195E+02</wgt>
<wgt id='11016'>0.21202E+02</wgt>
<wgt id='11017'>0.21399E+02</wgt>
<wgt id='11018'>0.21227E+02</wgt>
<wgt id='11019'>0.21219E+02</wgt>
<wgt id='11020'>0.21241E+02</wgt>
<wgt id='11021'>0.21295E+02</wgt>
<wgt id='11022'>0.21642E+02</wgt>
<wgt id='11023'>0.21211E+02</wgt>
<wgt id='11024'>0.21201E+02</wgt>
<wgt id='11025'>0.21166E+02</wgt>
<wgt id='11026'>0.21219E+02</wgt>
<wgt id='11027'>0.21218E+02</wgt>
<wgt id='11028'>0.21209E+02</wgt>
<wgt id='11029'>0.21207E+02</wgt>
<wgt id='11030'>0.21226E+02</wgt>
<wgt id='11031'>0.20915E+02</wgt>
<wgt id='11032'>0.21468E+02</wgt>
<wgt id='12000'>0.23727E+02</wgt>
<wgt id='12001'>0.23695E+02</wgt>
<wgt id='12002'>0.23758E+02</wgt>
<wgt id='12003'>0.23785E+02</wgt>
<wgt id='12004'>0.23669E+02</wgt>
<wgt id='12005'>0.23767E+02</wgt>
<wgt id='12006'>0.23687E+02</wgt>
<wgt id='12007'>0.23791E+02</wgt>
<wgt id='12008'>0.23665E+02</wgt>
<wgt id='12009'>0.23766E+02</wgt>
<wgt id='12010'>0.23688E+02</wgt>
<wgt id='12011'>0.23692E+02</wgt>
<wgt id='12012'>0.23766E+02</wgt>
<wgt id='12013'>0.23632E+02</wgt>
<wgt id='12014'>0.23823E+02</wgt>
<wgt id='12015'>0.23730E+02</wgt>
<wgt id='12016'>0.23690E+02</wgt>
<wgt id='12017'>0.23796E+02</wgt>
<wgt id='12018'>0.23648E+02</wgt>
<wgt id='12019'>0.23639E+02</wgt>
<wgt id='12020'>0.23812E+02</wgt>
<wgt id='12021'>0.23821E+02</wgt>
<wgt id='12022'>0.23605E+02</wgt>
<wgt id='12023'>0.23642E+02</wgt>
<wgt id='12024'>0.23692E+02</wgt>
<wgt id='12025'>0.23802E+02</wgt>
<wgt id='12026'>0.23686E+02</wgt>
<wgt id='12027'>0.23687E+02</wgt>
<wgt id='12028'>0.23787E+02</wgt>
<wgt id='12050'>0.23727E+02</wgt>
<wgt id='12051'>0.23703E+02</wgt>
<wgt id='12052'>0.23744E+02</wgt>
<wgt id='12053'>0.23697E+02</wgt>
<wgt id='12054'>0.23739E+02</wgt>
<wgt id='12055'>0.23793E+02</wgt>
<wgt id='12056'>0.23533E+02</wgt>
<wgt id='12057'>0.23631E+02</wgt>
<wgt id='12058'>0.23815E+02</wgt>
<wgt id='12059'>0.23667E+02</wgt>
<wgt id='12060'>0.23792E+02</wgt>
<wgt id='12061'>0.23729E+02</wgt>
<wgt id='12062'>0.23772E+02</wgt>
<wgt id='12063'>0.23495E+02</wgt>
<wgt id='13000'>0.21397E+02</wgt>
<wgt id='13001'>0.21380E+02</wgt>
<wgt id='13002'>0.21410E+02</wgt>
<wgt id='13003'>0.21423E+02</wgt>
<wgt id='13004'>0.21368E+02</wgt>
<wgt id='13005'>0.21447E+02</wgt>
<wgt id='13006'>0.21343E+02</wgt>
<wgt id='13007'>0.21486E+02</wgt>
<wgt id='13008'>0.21306E+02</wgt>
<wgt id='13009'>0.21402E+02</wgt>
<wgt id='13010'>0.21390E+02</wgt>
<wgt id='13011'>0.21447E+02</wgt>
<wgt id='13012'>0.21343E+02</wgt>
<wgt id='13013'>0.21330E+02</wgt>
<wgt id='13014'>0.21460E+02</wgt>
<wgt id='13015'>0.21360E+02</wgt>
<wgt id='13016'>0.21412E+02</wgt>
<wgt id='13017'>0.21382E+02</wgt>
<wgt id='13018'>0.21404E+02</wgt>
<wgt id='13019'>0.21357E+02</wgt>
<wgt id='13020'>0.21431E+02</wgt>
<wgt id='13021'>0.21215E+02</wgt>
<wgt id='13022'>0.21546E+02</wgt>
<wgt id='13023'>0.21411E+02</wgt>
<wgt id='13024'>0.21377E+02</wgt>
<wgt id='13025'>0.21354E+02</wgt>
<wgt id='13026'>0.21385E+02</wgt>
<wgt id='13027'>0.21409E+02</wgt>
<wgt id='13028'>0.21404E+02</wgt>
<wgt id='13050'>0.21397E+02</wgt>
<wgt id='13051'>0.21399E+02</wgt>
<wgt id='13052'>0.21350E+02</wgt>
<wgt id='13053'>0.21391E+02</wgt>
<wgt id='13054'>0.21388E+02</wgt>
<wgt id='13055'>0.21378E+02</wgt>
<wgt id='13056'>0.21400E+02</wgt>
<wgt id='13057'>0.21320E+02</wgt>
<wgt id='13058'>0.21507E+02</wgt>
<wgt id='13059'>0.21338E+02</wgt>
<wgt id='13060'>0.21469E+02</wgt>
<wgt id='13061'>0.21344E+02</wgt>
<wgt id='13062'>0.21553E+02</wgt>
<wgt id='13063'>0.21251E+02</wgt>
<wgt id='14000'>0.22169E+02</wgt>
<wgt id='14001'>0.22165E+02</wgt>
<wgt id='14002'>0.22162E+02</wgt>
<wgt id='14003'>0.22158E+02</wgt>
<wgt id='14004'>0.22155E+02</wgt>
<wgt id='14005'>0.22151E+02</wgt>
<wgt id='14006'>0.22148E+02</wgt>
<wgt id='14007'>0.22144E+02</wgt>
<wgt id='14008'>0.22140E+02</wgt>
<wgt id='14009'>0.22137E+02</wgt>
<wgt id='14010'>0.22133E+02</wgt>
<wgt id='14011'>0.22130E+02</wgt>
<wgt id='14012'>0.22126E+02</wgt>
<wgt id='14013'>0.22122E+02</wgt>
<wgt id='14014'>0.22119E+02</wgt>
<wgt id='14015'>0.22115E+02</wgt>
<wgt id='14016'>0.22112E+02</wgt>
<wgt id='14017'>0.22108E+02</wgt>
<wgt id='14018'>0.22104E+02</wgt>
<wgt id='14019'>0.22101E+02</wgt>
<wgt id='14020'>0.22097E+02</wgt>
<wgt id='14021'>0.22094E+02</wgt>
<wgt id='14022'>0.22090E+02</wgt>
<wgt id='14023'>0.22087E+02</wgt>
<wgt id='14024'>0.22083E+02</wgt>
<wgt id='14025'>0.22079E+02</wgt>
<wgt id='14026'>0.22076E+02</wgt>
<wgt id='14027'>0.22072E+02</wgt>
<wgt id='14028'>0.22068E+02</wgt>
<wgt id='14029'>0.22065E+02</wgt>
<wgt id='14030'>0.22061E+02</wgt>
<wgt id='15000'>0.20977E+02</wgt>
<wgt id='15001'>0.21016E+02</wgt>
<wgt id='15002'>0.21086E+02</wgt>
<wgt id='15003'>0.20788E+02</wgt>
<wgt id='15004'>0.20938E+02</wgt>
<wgt id='15005'>0.21088E+02</wgt>
<wgt id='15006'>0.20916E+02</wgt>
<wgt id='15007'>0.20979E+02</wgt>
<wgt id='15008'>0.21021E+02</wgt>
<wgt id='15009'>0.20965E+02</wgt>
<wgt id='15010'>0.20946E+02</wgt>
<wgt id='15011'>0.21205E+02</wgt>
<wgt id='15012'>0.20703E+02</wgt>
<wgt id='15013'>0.20697E+02</wgt>
<wgt id='15014'>0.20727E+02</wgt>
<wgt id='15015'>0.20949E+02</wgt>
<wgt id='15016'>0.21054E+02</wgt>
<wgt id='15017'>0.20992E+02</wgt>
<wgt id='15018'>0.20976E+02</wgt>
<wgt id='15019'>0.20958E+02</wgt>
<wgt id='15020'>0.21065E+02</wgt>
<wgt id='15021'>0.20969E+02</wgt>
<wgt id='15022'>0.21002E+02</wgt>
<wgt id='15023'>0.20947E+02</wgt>
<wgt id='15024'>0.20946E+02</wgt>
<wgt id='15025'>0.21006E+02</wgt>
<wgt id='15026'>0.20987E+02</wgt>
<wgt id='15027'>0.20956E+02</wgt>
<wgt id='15028'>0.20994E+02</wgt>
<wgt id='15029'>0.20997E+02</wgt>
<wgt id='15030'>0.20988E+02</wgt>
<wgt id='15031'>0.20973E+02</wgt>
<wgt id='15032'>0.20990E+02</wgt>
<wgt id='15033'>0.21004E+02</wgt>
<wgt id='15034'>0.20963E+02</wgt>
<wgt id='15035'>0.21012E+02</wgt>
<wgt id='15036'>0.20974E+02</wgt>
<wgt id='15037'>0.20998E+02</wgt>
<wgt id='15038'>0.20976E+02</wgt>
<wgt id='15039'>0.20977E+02</wgt>
<wgt id='15040'>0.20951E+02</wgt>
<wgt id='15041'>0.20966E+02</wgt>
<wgt id='15042'>0.20972E+02</wgt>
<wgt id='15043'>0.20961E+02</wgt>
<wgt id='15044'>0.20984E+02</wgt>
<wgt id='15045'>0.20972E+02</wgt>
<wgt id='15046'>0.20947E+02</wgt>
<wgt id='15047'>0.20965E+02</wgt>
<wgt id='15048'>0.20985E+02</wgt>
<wgt id='15049'>0.20966E+02</wgt>
<wgt id='15050'>0.20982E+02</wgt>
<wgt id='15051'>0.20984E+02</wgt>
<wgt id='15052'>0.20981E+02</wgt>
<wgt id='15053'>0.20980E+02</wgt>
<wgt id='15054'>0.20966E+02</wgt>
<wgt id='15055'>0.20974E+02</wgt>
<wgt id='15056'>0.20997E+02</wgt>
<wgt id='15057'>0.20975E+02</wgt>
<wgt id='15058'>0.20963E+02</wgt>
<wgt id='15059'>0.20968E+02</wgt>
<wgt id='15060'>0.20971E+02</wgt>
<wgt id='15061'>0.20980E+02</wgt>
<wgt id='15062'>0.20980E+02</wgt>
<wgt id='15063'>0.20986E+02</wgt>
<wgt id='15064'>0.20972E+02</wgt>
<wgt id='15065'>0.20976E+02</wgt>
<wgt id='15066'>0.20978E+02</wgt>
<wgt id='15067'>0.20984E+02</wgt>
<wgt id='15068'>0.20984E+02</wgt>
<wgt id='15069'>0.20988E+02</wgt>
<wgt id='15070'>0.20975E+02</wgt>
<wgt id='15071'>0.20989E+02</wgt>
<wgt id='15072'>0.20989E+02</wgt>
<wgt id='15073'>0.20971E+02</wgt>
<wgt id='15074'>0.20980E+02</wgt>
<wgt id='15075'>0.20976E+02</wgt>
<wgt id='15076'>0.20975E+02</wgt>
<wgt id='15077'>0.20980E+02</wgt>
<wgt id='15078'>0.20979E+02</wgt>
<wgt id='15079'>0.20973E+02</wgt>
<wgt id='15080'>0.20990E+02</wgt>
<wgt id='15081'>0.20975E+02</wgt>
<wgt id='15082'>0.20982E+02</wgt>
<wgt id='15083'>0.20970E+02</wgt>
<wgt id='15084'>0.20971E+02</wgt>
<wgt id='15085'>0.20972E+02</wgt>
<wgt id='15086'>0.20980E+02</wgt>
<wgt id='15087'>0.20964E+02</wgt>
<wgt id='15088'>0.20972E+02</wgt>
<wgt id='15089'>0.20972E+02</wgt>
<wgt id='15090'>0.20980E+02</wgt>
<wgt id='15091'>0.20975E+02</wgt>
<wgt id='15092'>0.20976E+02</wgt>
<wgt id='15093'>0.20974E+02</wgt>
<wgt id='15094'>0.20975E+02</wgt>
<wgt id='15095'>0.20979E+02</wgt>
<wgt id='15096'>0.20973E+02</wgt>
<wgt id='15097'>0.20978E+02</wgt>
<wgt id='15098'>0.20977E+02</wgt>
<wgt id='15099'>0.20972E+02</wgt>
<wgt id='15100'>0.20976E+02</wgt>
<wgt id='15101'>0.20977E+02</wgt>
<wgt id='15102'>0.20975E+02</wgt>
<wgt id='15103'>0.20977E+02</wgt>
<wgt id='15104'>0.20977E+02</wgt>
<wgt id='15105'>0.20978E+02</wgt>
<wgt id='15106'>0.20977E+02</wgt>
<wgt id='15107'>0.20976E+02</wgt>
<wgt id='1500'>0.22130E+02</wgt>
<wgt id='1501'>0.20196E+02</wgt>
<wgt id='1502'>0.22291E+02</wgt>
<wgt id='1503'>0.21982E+02</wgt>
<wgt id='1504'>0.21867E+02</wgt>
<wgt id='1505'>0.19400E+02</wgt>
<wgt id='1506'>0.22149E+02</wgt>
<wgt id='1507'>0.22500E+02</wgt>
<wgt id='1508'>0.21965E+02</wgt>
<wgt id='1509'>0.22110E+02</wgt>
<wgt id='1510'>0.21523E+02</wgt>
<wgt id='1511'>0.21851E+02</wgt>
<wgt id='1512'>0.22517E+02</wgt>
<wgt id='1513'>0.22506E+02</wgt>
<wgt id='1514'>0.21533E+02</wgt>
<wgt id='1515'>0.22133E+02</wgt>
<wgt id='1516'>0.22547E+02</wgt>
<wgt id='1517'>0.21756E+02</wgt>
<wgt id='1518'>0.21909E+02</wgt>
<wgt id='1519'>0.22344E+02</wgt>
<wgt id='1520'>0.22398E+02</wgt>
<wgt id='1521'>0.22243E+02</wgt>
<wgt id='1522'>0.22003E+02</wgt>
<wgt id='1523'>0.23861E+02</wgt>
<wgt id='1524'>0.21912E+02</wgt>
<wgt id='1525'>0.22477E+02</wgt>
<wgt id='1526'>0.21677E+02</wgt>
<wgt id='1527'>0.21945E+02</wgt>
<wgt id='1528'>0.21996E+02</wgt>
<wgt id='1529'>0.21816E+02</wgt>
<wgt id='1530'>0.22550E+02</wgt>
<wgt id='1531'>0.22034E+02</wgt>
<wgt id='1532'>0.21532E+02</wgt>
<wgt id='1533'>0.22722E+02</wgt>
<wgt id='1534'>0.22299E+02</wgt>
<wgt id='1535'>0.22829E+02</wgt>
<wgt id='1536'>0.22832E+02</wgt>
<wgt id='1537'>0.22354E+02</wgt>
<wgt id='1538'>0.21853E+02</wgt>
<wgt id='1539'>0.21262E+02</wgt>
<wgt id='1540'>0.22473E+02</wgt>
<wgt id='1541'>0.22026E+02</wgt>
<wgt id='1542'>0.22546E+02</wgt>
<wgt id='1543'>0.22400E+02</wgt>
<wgt id='1544'>0.21951E+02</wgt>
<wgt id='1545'>0.22599E+02</wgt>
<wgt id='1546'>0.22255E+02</wgt>
<wgt id='1547'>0.21754E+02</wgt>
<wgt id='1548'>0.21686E+02</wgt>
<wgt id='1549'>0.22393E+02</wgt>
<wgt id='1550'>0.22228E+02</wgt>
<wgt id='1551'>0.22146E+02</wgt>
<wgt id='1552'>0.22092E+02</wgt>
<wgt id='1553'>0.22539E+02</wgt>
<wgt id='1554'>0.22126E+02</wgt>
<wgt id='1555'>0.22217E+02</wgt>
<wgt id='1556'>0.21498E+02</wgt>
<wgt id='1557'>0.23087E+02</wgt>
<wgt id='1558'>0.21960E+02</wgt>
<wgt id='1559'>0.22413E+02</wgt>
<wgt id='1560'>0.22059E+02</wgt>
<wgt id='1561'>0.22409E+02</wgt>
<wgt id='1562'>0.22175E+02</wgt>
<wgt id='1563'>0.22570E+02</wgt>
<wgt id='1564'>0.21873E+02</wgt>
<wgt id='1565'>0.22470E+02</wgt>
<wgt id='1566'>0.22208E+02</wgt>
<wgt id='1567'>0.23172E+02</wgt>
<wgt id='1568'>0.21835E+02</wgt>
<wgt id='1569'>0.21621E+02</wgt>
<wgt id='1570'>0.22219E+02</wgt>
<wgt id='1571'>0.22738E+02</wgt>
<wgt id='1572'>0.21933E+02</wgt>
<wgt id='1573'>0.20409E+02</wgt>
<wgt id='1574'>0.22341E+02</wgt>
<wgt id='1575'>0.21905E+02</wgt>
<wgt id='1576'>0.21529E+02</wgt>
<wgt id='1577'>0.22315E+02</wgt>
<wgt id='1578'>0.23022E+02</wgt>
<wgt id='1579'>0.22035E+02</wgt>
<wgt id='1580'>0.22319E+02</wgt>
<wgt id='1581'>0.22274E+02</wgt>
<wgt id='1582'>0.21878E+02</wgt>
<wgt id='1583'>0.22150E+02</wgt>
<wgt id='1584'>0.22230E+02</wgt>
<wgt id='1585'>0.21491E+02</wgt>
<wgt id='1586'>0.22070E+02</wgt>
<wgt id='1587'>0.22081E+02</wgt>
<wgt id='1588'>0.22182E+02</wgt>
<wgt id='1589'>0.22549E+02</wgt>
<wgt id='1590'>0.22039E+02</wgt>
<wgt id='1591'>0.21434E+02</wgt>
<wgt id='1592'>0.22751E+02</wgt>
<wgt id='1593'>0.21936E+02</wgt>
<wgt id='1594'>0.22697E+02</wgt>
<wgt id='1595'>0.21754E+02</wgt>
<wgt id='1596'>0.22478E+02</wgt>
<wgt id='1597'>0.22270E+02</wgt>
<wgt id='1598'>0.23128E+02</wgt>
<wgt id='1599'>0.22767E+02</wgt>
<wgt id='1600'>0.21976E+02</wgt>
<wgt id='1601'>0.21772E+02</wgt>
<wgt id='1602'>0.22285E+02</wgt>
<wgt id='1700'>0.21309E+02</wgt>
<wgt id='1800'>0.25967E+02</wgt>
<wgt id='1850'>0.31042E+02</wgt>
<wgt id='1900'>0.25397E+02</wgt>
<wgt id='1950'>0.29942E+02</wgt>
</rwgt>
</event>
<event>
      4   9999  2.16956E+01  3.54724E+01 -1.00000E+00  1.45867E-01
      21    -1     0     0   502   501  0.000000000E+00  0.000000000E+00  6.937960352E+01  6.937960352E+01  0.000000000E+00  0.00000E+00  9.000E+00
      21    -1     0     0   512   502  0.000000000E+00  0.000000000E+00 -9.612419815E+02  9.612419815E+02  0.000000000E+00  0.00000E+00  9.000E+00
      25     1     1     2     0     0  4.713572729E+00 -3.515779119E+01  7.886225247E+00  1.301740091E+02  1.249991681E+02  0.00000E+00  9.000E+00
      21     1     1     2   512   501 -4.713572729E+00  3.515779119E+01 -8.997486032E+02  9.004475760E+02  0.000000000E+00  0.00000E+00  9.000E+00
#rwgt            1           1   18.367454358959101                1         790           0
<rwgt>
<wgt id='1001'>0.21696E+02</wgt>
<wgt id='1002'>0.22819E+02</wgt>
<wgt id='1003'>0.20374E+02</wgt>
<wgt id='1004'>0.19050E+02</wgt>
<wgt id='1005'>0.20025E+02</wgt>
<wgt id='1006'>0.17877E+02</wgt>
<wgt id='1007'>0.24794E+02</wgt>
<wgt id='1008'>0.26100E+02</wgt>
<wgt id='1009'>0.23305E+02</wgt>
<wgt id='2000'>0.21696E+02</wgt>
<wgt id='2001'>0.21675E+02</wgt>
<wgt id='2002'>0.21794E+02</wgt>
<wgt id='2003'>0.21790E+02</wgt>
<wgt id='2004'>0.21724E+02</wgt>
<wgt id='2005'>0.21633E+02</wgt>
<wgt id='2006'>0.21625E+02</wgt>
<wgt id='2007'>0.21595E+02</wgt>
<wgt id='2008'>0.21646E+02</wgt>
<wgt id='2009'>0.21723E+02</wgt>
<wgt id='2010'>0.21677E+02</wgt>
<wgt id='2011'>0.21809E+02</wgt>
<wgt id='2012'>0.21829E+02</wgt>
<wgt id='2013'>0.21918E+02</wgt>
<wgt id='2014'>0.21781E+02</wgt>
<wgt id='2015'>0.21744E+02</wgt>
<wgt id='2016'>0.21631E+02</wgt>
<wgt id='2017'>0.21693E+02</wgt>
<wgt id='2018'>0.21789E+02</wgt>
<wgt id='2019'>0.21684E+02</wgt>
<wgt id='2020'>0.21750E+02</wgt>
<wgt id='2021'>0.21667E+02</wgt>
<wgt id='2022'>0.21691E+02</wgt>
<wgt id='2023'>0.21706E+02</wgt>
<wgt id='2024'>0.21711E+02</wgt>
<wgt id='2025'>0.21677E+02</wgt>
<wgt id='2026'>0.21684E+02</wgt>
<wgt id='2027'>0.21690E+02</wgt>
<wgt id='2028'>0.21695E+02</wgt>
<wgt id='2029'>0.21718E+02</wgt>
<wgt id='2030'>0.21702E+02</wgt>
<wgt id='2031'>0.21705E+02</wgt>
<wgt id='2032'>0.21689E+02</wgt>
<wgt id='2033'>0.21698E+02</wgt>
<wgt id='2034'>0.21715E+02</wgt>
<wgt id='2035'>0.21692E+02</wgt>
<wgt id='2036'>0.21705E+02</wgt>
<wgt id='2037'>0.21703E+02</wgt>
<wgt id='2038'>0.21696E+02</wgt>
<wgt id='2039'>0.21684E+02</wgt>
<wgt id='2040'>0.21707E+02</wgt>
<wgt id='2041'>0.21702E+02</wgt>
<wgt id='2042'>0.21688E+02</wgt>
<wgt id='2043'>0.21699E+02</wgt>
<wgt id='2044'>0.21703E+02</wgt>
<wgt id='2045'>0.21697E+02</wgt>
<wgt id='2046'>0.21699E+02</wgt>
<wgt id='2047'>0.21707E+02</wgt>
<wgt id='2048'>0.21695E+02</wgt>
<wgt id='2049'>0.21695E+02</wgt>
<wgt id='2050'>0.21698E+02</wgt>
<wgt id='2051'>0.21705E+02</wgt>
<wgt id='2052'>0.21693E+02</wgt>
<wgt id='2053'>0.21692E+02</wgt>
<wgt id='2054'>0.21691E+02</wgt>
<wgt id='2055'>0.21699E+02</wgt>
<wgt id='2056'>0.21694E+02</wgt>
<wgt id='2057'>0.21693E+02</wgt>
<wgt id='2058'>0.21698E+02</wgt>
<wgt id='2059'>0.21695E+02</wgt>
<wgt id='2060'>0.21695E+02</wgt>
<wgt id='2061'>0.21693E+02</wgt>
<wgt id='2062'>0.21697E+02</wgt>
<wgt id='2063'>0.21694E+02</wgt>
<wgt id='2064'>0.21693E+02</wgt>
<wgt id='2065'>0.21703E+02</wgt>
<wgt id='2066'>0.21695E+02</wgt>
<wgt id='2067'>0.21696E+02</wgt>
<wgt id='2068'>0.21699E+02</wgt>
<wgt id='2069'>0.21695E+02</wgt>
<wgt id='2070'>0.21695E+02</wgt>
<wgt id='2071'>0.21691E+02</wgt>
<wgt id='2072'>0.21698E+02</wgt>
<wgt id='2073'>0.21699E+02</wgt>
<wgt id='2074'>0.21694E+02</wgt>
<wgt id='2075'>0.21693E+02</wgt>
<wgt id='2076'>0.21696E+02</wgt>
<wgt id='2077'>0.21693E+02</wgt>
<wgt id='2078'>0.21691E+02</wgt>
<wgt id='2079'>0.21698E+02</wgt>
<wgt id='2080'>0.21698E+02</wgt>
<wgt id='2081'>0.21697E+02</wgt>
<wgt id='2082'>0.21698E+02</wgt>
<wgt id='2083'>0.21698E+02</wgt>
<wgt id='2084'>0.21694E+02</wgt>
<wgt id='2085'>0.21691E+02</wgt>
<wgt id='2086'>0.21697E+02</wgt>
<wgt id='2087'>0.21695E+02</wgt>
<wgt id='2088'>0.21694E+02</wgt>
<wgt id='2089'>0.21696E+02</wgt>
<wgt id='2090'>0.21698E+02</wgt>
<wgt id='2091'>0.21696E+02</wgt>
<wgt id='2092'>0.21698E+02</wgt>
<wgt id='2093'>0.21696E+02</wgt>
<wgt id='2094'>0.21697E+02</wgt>
<wgt id='2095'>0.21696E+02</wgt>
<wgt id='2096'>0.21695E+02</wgt>
<wgt id='2097'>0.21696E+02</wgt>
<wgt id='2098'>0.21695E+02</wgt>
<wgt id='2099'>0.21696E+02</wgt>
<wgt id='2100'>0.21696E+02</wgt>
<wgt id='2101'>0.21205E+02</wgt>
<wgt id='2102'>0.22106E+02</wgt>
<wgt id='2104'>0.19472E+02</wgt>
<wgt id='2105'>0.19830E+02</wgt>
<wgt id='2106'>0.20275E+02</wgt>
<wgt id='2107'>0.20801E+02</wgt>
<wgt id='2108'>0.21520E+02</wgt>
<wgt id='2109'>0.21969E+02</wgt>
<wgt id='2110'>0.22528E+02</wgt>
<wgt id='2111'>0.22974E+02</wgt>
<wgt id='3000'>0.22583E+02</wgt>
<wgt id='3001'>0.22670E+02</wgt>
<wgt id='3002'>0.22485E+02</wgt>
<wgt id='3003'>0.22677E+02</wgt>
<wgt id='3004'>0.22635E+02</wgt>
<wgt id='3005'>0.22704E+02</wgt>
<wgt id='3006'>0.22620E+02</wgt>
<wgt id='3007'>0.22641E+02</wgt>
<wgt id='3008'>0.22506E+02</wgt>
<wgt id='3009'>0.22562E+02</wgt>
<wgt id='3010'>0.22487E+02</wgt>
<wgt id='3011'>0.22640E+02</wgt>
<wgt id='3012'>0.22764E+02</wgt>
<wgt id='3013'>0.22376E+02</wgt>
<wgt id='3014'>0.22686E+02</wgt>
<wgt id='3015'>0.22684E+02</wgt>
<wgt id='3016'>0.22591E+02</wgt>
<wgt id='3017'>0.22694E+02</wgt>
<wgt id='3018'>0.22603E+02</wgt>
<wgt id='3019'>0.22504E+02</wgt>
<wgt id='3020'>0.22587E+02</wgt>
<wgt id='3021'>0.22538E+02</wgt>
<wgt id='3022'>0.22579E+02</wgt>
<wgt id='3023'>0.22571E+02</wgt>
<wgt id='3024'>0.22603E+02</wgt>
<wgt id='3025'>0.22590E+02</wgt>
<wgt id='3026'>0.22573E+02</wgt>
<wgt id='3027'>0.22593E+02</wgt>
<wgt id='3028'>0.22588E+02</wgt>
<wgt id='3029'>0.22586E+02</wgt>
<wgt id='3030'>0.22604E+02</wgt>
<wgt id='3031'>0.22591E+02</wgt>
<wgt id='3032'>0.22578E+02</wgt>
<wgt id='3033'>0.22591E+02</wgt>
<wgt id='3034'>0.22580E+02</wgt>
<wgt id='3035'>0.22604E+02</wgt>
<wgt id='3036'>0.22590E+02</wgt>
<wgt id='3037'>0.22584E+02</wgt>
<wgt id='3038'>0.22584E+02</wgt>
<wgt id='3039'>0.22571E+02</wgt>
<wgt id='3040'>0.22581E+02</wgt>
<wgt id='3041'>0.22590E+02</wgt>
<wgt id='3042'>0.22577E+02</wgt>
<wgt id='3043'>0.22579E+02</wgt>
<wgt id='3044'>0.22581E+02</wgt>
<wgt id='3045'>0.22590E+02</wgt>
<wgt id='3046'>0.22591E+02</wgt>
<wgt id='3047'>0.22581E+02</wgt>
<wgt id='3048'>0.22587E+02</wgt>
<wgt id='3049'>0.22582E+02</wgt>
<wgt id='3050'>0.22582E+02</wgt>
<wgt id='3051'>0.22593E+02</wgt>
<wgt id='3052'>0.22579E+02</wgt>
<wgt id='3053'>0.22579E+02</wgt>
<wgt id='3054'>0.22579E+02</wgt>
<wgt id='3055'>0.22576E+02</wgt>
<wgt id='3056'>0.22584E+02</wgt>
<wgt id='3057'>0.22575E+02</wgt>
<wgt id='3058'>0.22580E+02</wgt>
<wgt id='3059'>0.22580E+02</wgt>
<wgt id='3060'>0.22583E+02</wgt>
<wgt id='3061'>0.22582E+02</wgt>
<wgt id='3062'>0.22584E+02</wgt>
<wgt id='3063'>0.22589E+02</wgt>
<wgt id='3064'>0.22582E+02</wgt>
<wgt id='3065'>0.22587E+02</wgt>
<wgt id='3066'>0.22585E+02</wgt>
<wgt id='3067'>0.22580E+02</wgt>
<wgt id='3068'>0.22581E+02</wgt>
<wgt id='3069'>0.22579E+02</wgt>
<wgt id='3070'>0.22581E+02</wgt>
<wgt id='3071'>0.22584E+02</wgt>
<wgt id='3072'>0.22587E+02</wgt>
<wgt id='3073'>0.22581E+02</wgt>
<wgt id='3074'>0.22587E+02</wgt>
<wgt id='3075'>0.22586E+02</wgt>
<wgt id='3076'>0.22580E+02</wgt>
<wgt id='3077'>0.22580E+02</wgt>
<wgt id='3078'>0.22586E+02</wgt>
<wgt id='3079'>0.22581E+02</wgt>
<wgt id='3080'>0.22582E+02</wgt>
<wgt id='3081'>0.22582E+02</wgt>
<wgt id='3082'>0.22582E+02</wgt>
<wgt id='3083'>0.22582E+02</wgt>
<wgt id='3084'>0.22581E+02</wgt>
<wgt id='3085'>0.22582E+02</wgt>
<wgt id='3086'>0.22583E+02</wgt>
<wgt id='3087'>0.22581E+02</wgt>
<wgt id='3088'>0.22582E+02</wgt>
<wgt id='3089'>0.22583E+02</wgt>
<wgt id='3090'>0.22583E+02</wgt>
<wgt id='3091'>0.22584E+02</wgt>
<wgt id='3092'>0.22583E+02</wgt>
<wgt id='3093'>0.22582E+02</wgt>
<wgt id='3094'>0.22584E+02</wgt>
<wgt id='3095'>0.22583E+02</wgt>
<wgt id='3096'>0.22583E+02</wgt>
<wgt id='3097'>0.22580E+02</wgt>
<wgt id='3098'>0.22583E+02</wgt>
<wgt id='3099'>0.22584E+02</wgt>
<wgt id='3100'>0.22583E+02</wgt>
<wgt id='3101'>0.22105E+02</wgt>
<wgt id='3102'>0.23144E+02</wgt>
<wgt id='5000'>0.21104E+02</wgt>
<wgt id='5001'>0.21012E+02</wgt>
<wgt id='5002'>0.21072E+02</wgt>
<wgt id='5003'>0.20949E+02</wgt>
<wgt id='5004'>0.21166E+02</wgt>
<wgt id='5005'>0.20590E+02</wgt>
<wgt id='5006'>0.21492E+02</wgt>
<wgt id='5007'>0.21248E+02</wgt>
<wgt id='5008'>0.20807E+02</wgt>
<wgt id='5009'>0.21385E+02</wgt>
<wgt id='5010'>0.20953E+02</wgt>
<wgt id='5011'>0.21061E+02</wgt>
<wgt id='5012'>0.21092E+02</wgt>
<wgt id='5013'>0.20646E+02</wgt>
<wgt id='5014'>0.21090E+02</wgt>
<wgt id='5015'>0.21272E+02</wgt>
<wgt id='5016'>0.20589E+02</wgt>
<wgt id='5017'>0.21166E+02</wgt>
<wgt id='5018'>0.21037E+02</wgt>
<wgt id='5019'>0.21011E+02</wgt>
<wgt id='5020'>0.21175E+02</wgt>
<wgt id='5021'>0.21182E+02</wgt>
<wgt id='5022'>0.21054E+02</wgt>
<wgt id='5023'>0.21060E+02</wgt>
<wgt id='5024'>0.21147E+02</wgt>
<wgt id='5025'>0.21072E+02</wgt>
<wgt id='5026'>0.21130E+02</wgt>
<wgt id='5027'>0.21335E+02</wgt>
<wgt id='5028'>0.20717E+02</wgt>
<wgt id='5029'>0.20690E+02</wgt>
<wgt id='5030'>0.21353E+02</wgt>
<wgt id='5031'>0.20855E+02</wgt>
<wgt id='5032'>0.21464E+02</wgt>
<wgt id='5033'>0.20928E+02</wgt>
<wgt id='5034'>0.21255E+02</wgt>
<wgt id='5035'>0.20758E+02</wgt>
<wgt id='5036'>0.21382E+02</wgt>
<wgt id='5037'>0.21100E+02</wgt>
<wgt id='5038'>0.21096E+02</wgt>
<wgt id='5039'>0.21464E+02</wgt>
<wgt id='5040'>0.20919E+02</wgt>
<wgt id='5041'>0.20840E+02</wgt>
<wgt id='5042'>0.21153E+02</wgt>
<wgt id='5043'>0.21346E+02</wgt>
<wgt id='5044'>0.20504E+02</wgt>
<wgt id='5045'>0.21778E+02</wgt>
<wgt id='5046'>0.20904E+02</wgt>
<wgt id='5047'>0.21265E+02</wgt>
<wgt id='5048'>0.21193E+02</wgt>
<wgt id='5049'>0.21124E+02</wgt>
<wgt id='5050'>0.21143E+02</wgt>
<wgt id='5051'>0.21172E+02</wgt>
<wgt id='5052'>0.21082E+02</wgt>
<wgt id='5053'>0.20946E+02</wgt>
<wgt id='5054'>0.21684E+02</wgt>
<wgt id='5055'>0.20968E+02</wgt>
<wgt id='5056'>0.21217E+02</wgt>
<wgt id='5060'>0.20699E+02</wgt>
<wgt id='5070'>0.21430E+02</wgt>
<wgt id='4000'>0.22239E+02</wgt>
<wgt id='4001'>0.22264E+02</wgt>
<wgt id='4002'>0.22314E+02</wgt>
<wgt id='4003'>0.22838E+02</wgt>
<wgt id='4004'>0.21969E+02</wgt>
<wgt id='4005'>0.22327E+02</wgt>
<wgt id='4006'>0.22167E+02</wgt>
<wgt id='4007'>0.22524E+02</wgt>
<wgt id='4008'>0.22107E+02</wgt>
<wgt id='4009'>0.21728E+02</wgt>
<wgt id='4010'>0.22653E+02</wgt>
<wgt id='4011'>0.22596E+02</wgt>
<wgt id='4012'>0.22034E+02</wgt>
<wgt id='4013'>0.21359E+02</wgt>
<wgt id='4014'>0.22749E+02</wgt>
<wgt id='4015'>0.22426E+02</wgt>
<wgt id='4016'>0.22114E+02</wgt>
<wgt id='4017'>0.22033E+02</wgt>
<wgt id='4018'>0.22483E+02</wgt>
<wgt id='4019'>0.22537E+02</wgt>
<wgt id='4020'>0.21903E+02</wgt>
<wgt id='4021'>0.22299E+02</wgt>
<wgt id='4022'>0.22108E+02</wgt>
<wgt id='4023'>0.22114E+02</wgt>
<wgt id='4024'>0.22349E+02</wgt>
<wgt id='4025'>0.21887E+02</wgt>
<wgt id='4026'>0.22561E+02</wgt>
<wgt id='4027'>0.22156E+02</wgt>
<wgt id='4028'>0.22349E+02</wgt>
<wgt id='4029'>0.22063E+02</wgt>
<wgt id='4030'>0.22299E+02</wgt>
<wgt id='4031'>0.22272E+02</wgt>
<wgt id='4032'>0.22195E+02</wgt>
<wgt id='4033'>0.22229E+02</wgt>
<wgt id='4034'>0.22253E+02</wgt>
<wgt id='4035'>0.22597E+02</wgt>
<wgt id='4036'>0.21893E+02</wgt>
<wgt id='4037'>0.22439E+02</wgt>
<wgt id='4038'>0.21904E+02</wgt>
<wgt id='4039'>0.22230E+02</wgt>
<wgt id='4040'>0.22201E+02</wgt>
<wgt id='4041'>0.22441E+02</wgt>
<wgt id='4042'>0.22049E+02</wgt>
<wgt id='4043'>0.22455E+02</wgt>
<wgt id='4044'>0.21984E+02</wgt>
<wgt id='4045'>0.21983E+02</wgt>
<wgt id='4046'>0.22113E+02</wgt>
<wgt id='4047'>0.21909E+02</wgt>
<wgt id='4048'>0.22533E+02</wgt>
<wgt id='4049'>0.22386E+02</wgt>
<wgt id='4050'>0.21742E+02</wgt>
<wgt id='4051'>0.22192E+02</wgt>
<wgt id='4052'>0.22174E+02</wgt>
<wgt id='4053'>0.21652E+02</wgt>
<wgt id='4054'>0.22413E+02</wgt>
<wgt id='4055'>0.22050E+02</wgt>
<wgt id='4056'>0.22405E+02</wgt>
<wgt id='4060'>0.21724E+02</wgt>
<wgt id='4070'>0.22695E+02</wgt>
<wgt id='4080'>0.21734E+02</wgt>
<wgt id='6000'>0.22661E+02</wgt>
<wgt id='6001'>0.22666E+02</wgt>
<wgt id='6002'>0.22656E+02</wgt>
<wgt id='6003'>0.22670E+02</wgt>
<wgt id='6004'>0.22655E+02</wgt>
<wgt id='6005'>0.22729E+02</wgt>
<wgt id='6006'>0.22599E+02</wgt>
<wgt id='6007'>0.22559E+02</wgt>
<wgt id='6008'>0.22774E+02</wgt>
<wgt id='6009'>0.22725E+02</wgt>
<wgt id='6010'>0.22598E+02</wgt>
<wgt id='6011'>0.22708E+02</wgt>
<wgt id='6012'>0.22559E+02</wgt>
<wgt id='6013'>0.22638E+02</wgt>
<wgt id='6014'>0.22702E+02</wgt>
<wgt id='6015'>0.22588E+02</wgt>
<wgt id='6016'>0.22702E+02</wgt>
<wgt id='6017'>0.22538E+02</wgt>
<wgt id='6018'>0.22806E+02</wgt>
<wgt id='6019'>0.22702E+02</wgt>
<wgt id='6020'>0.22625E+02</wgt>
<wgt id='6021'>0.22611E+02</wgt>
<wgt id='6022'>0.22729E+02</wgt>
<wgt id='6023'>0.22503E+02</wgt>
<wgt id='6024'>0.22772E+02</wgt>
<wgt id='6025'>0.22361E+02</wgt>
<wgt id='6026'>0.22935E+02</wgt>
<wgt id='6027'>0.22719E+02</wgt>
<wgt id='6028'>0.22661E+02</wgt>
<wgt id='6029'>0.22809E+02</wgt>
<wgt id='6030'>0.22489E+02</wgt>
<wgt id='6031'>0.22693E+02</wgt>
<wgt id='6032'>0.22618E+02</wgt>
<wgt id='6033'>0.22704E+02</wgt>
<wgt id='6034'>0.22616E+02</wgt>
<wgt id='6035'>0.22644E+02</wgt>
<wgt id='6036'>0.22743E+02</wgt>
<wgt id='6037'>0.22703E+02</wgt>
<wgt id='6038'>0.22655E+02</wgt>
<wgt id='6039'>0.22643E+02</wgt>
<wgt id='6040'>0.22681E+02</wgt>
<wgt id='6041'>0.22613E+02</wgt>
<wgt id='6042'>0.22719E+02</wgt>
<wgt id='6043'>0.22943E+02</wgt>
<wgt id='6044'>0.22515E+02</wgt>
<wgt id='6045'>0.22642E+02</wgt>
<wgt id='6046'>0.22711E+02</wgt>
<wgt id='6047'>0.22575E+02</wgt>
<wgt id='6048'>0.22556E+02</wgt>
<wgt id='6049'>0.22621E+02</wgt>
<wgt id='6050'>0.22666E+02</wgt>
<wgt id='7000'>0.21278E+02</wgt>
<wgt id='7001'>0.21265E+02</wgt>
<wgt id='7002'>0.21294E+02</wgt>
<wgt id='7003'>0.21346E+02</wgt>
<wgt id='7004'>0.21211E+02</wgt>
<wgt id='7005'>0.21319E+02</wgt>
<wgt id='7006'>0.21261E+02</wgt>
<wgt id='7007'>0.21192E+02</wgt>
<wgt id='7008'>0.21364E+02</wgt>
<wgt id='7009'>0.21311E+02</wgt>
<wgt id='7010'>0.21246E+02</wgt>
<wgt id='7011'>0.21084E+02</wgt>
<wgt id='7012'>0.21362E+02</wgt>
<wgt id='7013'>0.21280E+02</wgt>
<wgt id='7014'>0.21275E+02</wgt>
<wgt id='7015'>0.21220E+02</wgt>
<wgt id='7016'>0.21340E+02</wgt>
<wgt id='7017'>0.21245E+02</wgt>
<wgt id='7018'>0.21294E+02</wgt>
<wgt id='7019'>0.21249E+02</wgt>
<wgt id='7020'>0.21317E+02</wgt>
<wgt id='7021'>0.21270E+02</wgt>
<wgt id='7022'>0.21283E+02</wgt>
<wgt id='7023'>0.21534E+02</wgt>
<wgt id='7024'>0.21031E+02</wgt>
<wgt id='7025'>0.21376E+02</wgt>
<wgt id='7026'>0.21037E+02</wgt>
<wgt id='7027'>0.21372E+02</wgt>
<wgt id='7028'>0.21232E+02</wgt>
<wgt id='7029'>0.21174E+02</wgt>
<wgt id='7030'>0.21555E+02</wgt>
<wgt id='7031'>0.21278E+02</wgt>
<wgt id='7032'>0.21284E+02</wgt>
<wgt id='7033'>0.21246E+02</wgt>
<wgt id='7034'>0.21349E+02</wgt>
<wgt id='7035'>0.21338E+02</wgt>
<wgt id='7036'>0.21260E+02</wgt>
<wgt id='7037'>0.21288E+02</wgt>
<wgt id='7038'>0.21277E+02</wgt>
<wgt id='7039'>0.21260E+02</wgt>
<wgt id='7040'>0.21289E+02</wgt>
<wgt id='7041'>0.21238E+02</wgt>
<wgt id='7042'>0.21298E+02</wgt>
<wgt id='7043'>0.21297E+02</wgt>
<wgt id='7044'>0.21167E+02</wgt>
<wgt id='7045'>0.21107E+02</wgt>
<wgt id='7046'>0.21306E+02</wgt>
<wgt id='7047'>0.21280E+02</wgt>
<wgt id='7048'>0.21266E+02</wgt>
<wgt id='7049'>0.21264E+02</wgt>
<wgt id='7050'>0.21212E+02</wgt>
<wgt id='7060'>0.31785E+02</wgt>
<wgt id='8000'>0.21519E+02</wgt>
<wgt id='8001'>0.21513E+02</wgt>
<wgt id='8002'>0.21525E+02</wgt>
<wgt id='8003'>0.21521E+02</wgt>
<wgt id='8004'>0.21518E+02</wgt>
<wgt id='8005'>0.21467E+02</wgt>
<wgt id='8006'>0.21504E+02</wgt>
<wgt id='8007'>0.21490E+02</wgt>
<wgt id='8008'>0.21556E+02</wgt>
<wgt id='8009'>0.21597E+02</wgt>
<wgt id='8010'>0.21519E+02</wgt>
<wgt id='8011'>0.21507E+02</wgt>
<wgt id='8012'>0.21495E+02</wgt>
<wgt id='8013'>0.21516E+02</wgt>
<wgt id='8014'>0.21505E+02</wgt>
<wgt id='8015'>0.21503E+02</wgt>
<wgt id='8016'>0.21523E+02</wgt>
<wgt id='8017'>0.21520E+02</wgt>
<wgt id='8018'>0.21514E+02</wgt>
<wgt id='8019'>0.21559E+02</wgt>
<wgt id='8020'>0.21442E+02</wgt>
<wgt id='8021'>0.21522E+02</wgt>
<wgt id='8022'>0.21378E+02</wgt>
<wgt id='8023'>0.21547E+02</wgt>
<wgt id='8024'>0.21573E+02</wgt>
<wgt id='8025'>0.21600E+02</wgt>
<wgt id='8026'>0.21565E+02</wgt>
<wgt id='8027'>0.21478E+02</wgt>
<wgt id='8028'>0.21539E+02</wgt>
<wgt id='8029'>0.21370E+02</wgt>
<wgt id='8500'>0.22342E+02</wgt>
<wgt id='8501'>0.22301E+02</wgt>
<wgt id='8502'>0.22578E+02</wgt>
<wgt id='8503'>0.22505E+02</wgt>
<wgt id='8504'>0.22285E+02</wgt>
<wgt id='8505'>0.22224E+02</wgt>
<wgt id='8506'>0.22275E+02</wgt>
<wgt id='8507'>0.22483E+02</wgt>
<wgt id='8508'>0.22699E+02</wgt>
<wgt id='8509'>0.22181E+02</wgt>
<wgt id='8510'>0.22678E+02</wgt>
<wgt id='8511'>0.22355E+02</wgt>
<wgt id='8512'>0.22068E+02</wgt>
<wgt id='8513'>0.22377E+02</wgt>
<wgt id='8514'>0.22263E+02</wgt>
<wgt id='8515'>0.22340E+02</wgt>
<wgt id='8516'>0.22415E+02</wgt>
<wgt id='8517'>0.22317E+02</wgt>
<wgt id='8518'>0.22280E+02</wgt>
<wgt id='8519'>0.22273E+02</wgt>
<wgt id='8520'>0.22359E+02</wgt>
<wgt id='8521'>0.22256E+02</wgt>
<wgt id='8522'>0.22353E+02</wgt>
<wgt id='8523'>0.22306E+02</wgt>
<wgt id='8524'>0.22345E+02</wgt>
<wgt id='8525'>0.22322E+02</wgt>
<wgt id='8526'>0.22305E+02</wgt>
<wgt id='8527'>0.22336E+02</wgt>
<wgt id='8528'>0.22286E+02</wgt>
<wgt id='8529'>0.22328E+02</wgt>
<wgt id='8530'>0.22346E+02</wgt>
<wgt id='8531'>0.22333E+02</wgt>
<wgt id='8532'>0.22347E+02</wgt>
<wgt id='8533'>0.22297E+02</wgt>
<wgt id='8534'>0.22352E+02</wgt>
<wgt id='8535'>0.22391E+02</wgt>
<wgt id='8536'>0.22327E+02</wgt>
<wgt id='8537'>0.22350E+02</wgt>
<wgt id='8538'>0.22319E+02</wgt>
<wgt id='8539'>0.22345E+02</wgt>
<wgt id='8540'>0.22347E+02</wgt>
<wgt id='8541'>0.22352E+02</wgt>
<wgt id='8542'>0.22358E+02</wgt>
<wgt id='8543'>0.22322E+02</wgt>
<wgt id='8544'>0.22365E+02</wgt>
<wgt id='8545'>0.22361E+02</wgt>
<wgt id='8546'>0.22362E+02</wgt>
<wgt id='8547'>0.22324E+02</wgt>
<wgt id='8548'>0.22320E+02</wgt>
<wgt id='8549'>0.22343E+02</wgt>
<wgt id='8550'>0.22347E+02</wgt>
<wgt id='8551'>0.22320E+02</wgt>
<wgt id='8552'>0.22347E+02</wgt>
<wgt id='8553'>0.22333E+02</wgt>
<wgt id='8554'>0.22332E+02</wgt>
<wgt id='8555'>0.22344E+02</wgt>
<wgt id='8556'>0.22341E+02</wgt>
<wgt id='8557'>0.22336E+02</wgt>
<wgt id='8558'>0.22365E+02</wgt>
<wgt id='8559'>0.22331E+02</wgt>
<wgt id='8560'>0.22319E+02</wgt>
<wgt id='8561'>0.22339E+02</wgt>
<wgt id='8562'>0.22326E+02</wgt>
<wgt id='8563'>0.22343E+02</wgt>
<wgt id='8564'>0.22338E+02</wgt>
<wgt id='8565'>0.22340E+02</wgt>
<wgt id='8566'>0.22338E+02</wgt>
<wgt id='8567'>0.22341E+02</wgt>
<wgt id='8568'>0.22350E+02</wgt>
<wgt id='8569'>0.22347E+02</wgt>
<wgt id='8570'>0.22339E+02</wgt>
<wgt id='8571'>0.22334E+02</wgt>
<wgt id='8572'>0.22336E+02</wgt>
<wgt id='8573'>0.22333E+02</wgt>
<wgt id='8574'>0.22346E+02</wgt>
<wgt id='8575'>0.22339E+02</wgt>
<wgt id='8576'>0.22340E+02</wgt>
<wgt id='8577'>0.22340E+02</wgt>
<wgt id='8578'>0.22344E+02</wgt>
<wgt id='8579'>0.22354E+02</wgt>
<wgt id='8580'>0.22342E+02</wgt>
<wgt id='8581'>0.22345E+02</wgt>
<wgt id='8582'>0.22329E+02</wgt>
<wgt id='8583'>0.22350E+02</wgt>
<wgt id='8584'>0.22347E+02</wgt>
<wgt id='8585'>0.22345E+02</wgt>
<wgt id='8586'>0.22352E+02</wgt>
<wgt id='8587'>0.22339E+02</wgt>
<wgt id='8588'>0.22337E+02</wgt>
<wgt id='8589'>0.22343E+02</wgt>
<wgt id='8590'>0.22340E+02</wgt>
<wgt id='8591'>0.22339E+02</wgt>
<wgt id='8592'>0.22341E+02</wgt>
<wgt id='8593'>0.22334E+02</wgt>
<wgt id='8594'>0.22345E+02</wgt>
<wgt id='8595'>0.22344E+02</wgt>
<wgt id='8596'>0.22337E+02</wgt>
<wgt id='8597'>0.22345E+02</wgt>
<wgt id='8598'>0.22346E+02</wgt>
<wgt id='8599'>0.22345E+02</wgt>
<wgt id='8600'>0.22342E+02</wgt>
<wgt id='8601'>0.21968E+02</wgt>
<wgt id='8602'>0.22653E+02</wgt>
<wgt id='9000'>0.21240E+02</wgt>
<wgt id='9001'>0.21282E+02</wgt>
<wgt id='9002'>0.21354E+02</wgt>
<wgt id='9003'>0.21041E+02</wgt>
<wgt id='9004'>0.21199E+02</wgt>
<wgt id='9005'>0.21359E+02</wgt>
<wgt id='9006'>0.21174E+02</wgt>
<wgt id='9007'>0.21238E+02</wgt>
<wgt id='9008'>0.21285E+02</wgt>
<wgt id='9009'>0.21229E+02</wgt>
<wgt id='9010'>0.21211E+02</wgt>
<wgt id='9011'>0.21475E+02</wgt>
<wgt id='9012'>0.20951E+02</wgt>
<wgt id='9013'>0.20953E+02</wgt>
<wgt id='9014'>0.20976E+02</wgt>
<wgt id='9015'>0.21207E+02</wgt>
<wgt id='9016'>0.21307E+02</wgt>
<wgt id='9017'>0.21259E+02</wgt>
<wgt id='9018'>0.21246E+02</wgt>
<wgt id='9019'>0.21225E+02</wgt>
<wgt id='9020'>0.21330E+02</wgt>
<wgt id='9021'>0.21239E+02</wgt>
<wgt id='9022'>0.21265E+02</wgt>
<wgt id='9023'>0.21211E+02</wgt>
<wgt id='9024'>0.21207E+02</wgt>
<wgt id='9025'>0.21270E+02</wgt>
<wgt id='9026'>0.21252E+02</wgt>
<wgt id='9027'>0.21225E+02</wgt>
<wgt id='9028'>0.21257E+02</wgt>
<wgt id='9029'>0.21259E+02</wgt>
<wgt id='9030'>0.21255E+02</wgt>
<wgt id='9031'>0.21238E+02</wgt>
<wgt id='9032'>0.21252E+02</wgt>
<wgt id='9033'>0.21267E+02</wgt>
<wgt id='9034'>0.21226E+02</wgt>
<wgt id='9035'>0.21276E+02</wgt>
<wgt id='9036'>0.21238E+02</wgt>
<wgt id='9037'>0.21261E+02</wgt>
<wgt id='9038'>0.21239E+02</wgt>
<wgt id='9039'>0.21240E+02</wgt>
<wgt id='9040'>0.21215E+02</wgt>
<wgt id='9041'>0.21229E+02</wgt>
<wgt id='9042'>0.21234E+02</wgt>
<wgt id='9043'>0.21225E+02</wgt>
<wgt id='9044'>0.21247E+02</wgt>
<wgt id='9045'>0.21235E+02</wgt>
<wgt id='9046'>0.21211E+02</wgt>
<wgt id='9047'>0.21228E+02</wgt>
<wgt id='9048'>0.21248E+02</wgt>
<wgt id='9049'>0.21229E+02</wgt>
<wgt id='9050'>0.21246E+02</wgt>
<wgt id='9051'>0.21248E+02</wgt>
<wgt id='9052'>0.21244E+02</wgt>
<wgt id='9053'>0.21244E+02</wgt>
<wgt id='9054'>0.21229E+02</wgt>
<wgt id='9055'>0.21237E+02</wgt>
<wgt id='9056'>0.21260E+02</wgt>
<wgt id='9057'>0.21238E+02</wgt>
<wgt id='9058'>0.21226E+02</wgt>
<wgt id='9059'>0.21232E+02</wgt>
<wgt id='9060'>0.21234E+02</wgt>
<wgt id='9061'>0.21244E+02</wgt>
<wgt id='9062'>0.21244E+02</wgt>
<wgt id='9063'>0.21250E+02</wgt>
<wgt id='9064'>0.21236E+02</wgt>
<wgt id='9065'>0.21240E+02</wgt>
<wgt id='9066'>0.21242E+02</wgt>
<wgt id='9067'>0.21247E+02</wgt>
<wgt id='9068'>0.21247E+02</wgt>
<wgt id='9069'>0.21251E+02</wgt>
<wgt id='9070'>0.21238E+02</wgt>
<wgt id='9071'>0.21253E+02</wgt>
<wgt id='9072'>0.21253E+02</wgt>
<wgt id='9073'>0.21234E+02</wgt>
<wgt id='9074'>0.21243E+02</wgt>
<wgt id='9075'>0.21239E+02</wgt>
<wgt id='9076'>0.21239E+02</wgt>
<wgt id='9077'>0.21243E+02</wgt>
<wgt id='9078'>0.21242E+02</wgt>
<wgt id='9079'>0.21237E+02</wgt>
<wgt id='9080'>0.21254E+02</wgt>
<wgt id='9081'>0.21239E+02</wgt>
<wgt id='9082'>0.21245E+02</wgt>
<wgt id='9083'>0.21234E+02</wgt>
<wgt id='9084'>0.21234E+02</wgt>
<wgt id='9085'>0.21235E+02</wgt>
<wgt id='9086'>0.21243E+02</wgt>
<wgt id='9087'>0.21228E+02</wgt>
<wgt id='9088'>0.21236E+02</wgt>
<wgt id='9089'>0.21235E+02</wgt>
<wgt id='9090'>0.21243E+02</wgt>
<wgt id='9091'>0.21238E+02</wgt>
<wgt id='9092'>0.21240E+02</wgt>
<wgt id='9093'>0.21237E+02</wgt>
<wgt id='9094'>0.21239E+02</wgt>
<wgt id='9095'>0.21243E+02</wgt>
<wgt id='9096'>0.21236E+02</wgt>
<wgt id='9097'>0.21242E+02</wgt>
<wgt id='9098'>0.21240E+02</wgt>
<wgt id='9099'>0.21236E+02</wgt>
<wgt id='9100'>0.21240E+02</wgt>
<wgt id='9101'>0.20969E+02</wgt>
<wgt id='9102'>0.21439E+02</wgt>
<wgt id='10000'>0.22346E+02</wgt>
<wgt id='10001'>0.22449E+02</wgt>
<wgt id='10002'>0.22360E+02</wgt>
<wgt id='10003'>0.22355E+02</wgt>
<wgt id='10004'>0.22438E+02</wgt>
<wgt id='10005'>0.23011E+02</wgt>
<wgt id='10006'>0.22353E+02</wgt>
<wgt id='10007'>0.22342E+02</wgt>
<wgt id='10008'>0.22382E+02</wgt>
<wgt id='10009'>0.22309E+02</wgt>
<wgt id='10010'>0.22350E+02</wgt>
<wgt id='10011'>0.22323E+02</wgt>
<wgt id='10012'>0.22313E+02</wgt>
<wgt id='10013'>0.22340E+02</wgt>
<wgt id='10014'>0.22359E+02</wgt>
<wgt id='10015'>0.22373E+02</wgt>
<wgt id='10016'>0.22359E+02</wgt>
<wgt id='10017'>0.22209E+02</wgt>
<wgt id='10018'>0.22366E+02</wgt>
<wgt id='10019'>0.22303E+02</wgt>
<wgt id='10020'>0.22362E+02</wgt>
<wgt id='10021'>0.22351E+02</wgt>
<wgt id='10022'>0.22342E+02</wgt>
<wgt id='10023'>0.22361E+02</wgt>
<wgt id='10024'>0.22352E+02</wgt>
<wgt id='10025'>0.22332E+02</wgt>
<wgt id='10026'>0.22338E+02</wgt>
<wgt id='10027'>0.22336E+02</wgt>
<wgt id='10028'>0.22370E+02</wgt>
<wgt id='10029'>0.22368E+02</wgt>
<wgt id='10030'>0.22336E+02</wgt>
<wgt id='10031'>0.21968E+02</wgt>
<wgt id='10032'>0.22653E+02</wgt>
<wgt id='11000'>0.21244E+02</wgt>
<wgt id='11001'>0.21273E+02</wgt>
<wgt id='11002'>0.21315E+02</wgt>
<wgt id='11003'>0.21222E+02</wgt>
<wgt id='11004'>0.21311E+02</wgt>
<wgt id='11005'>0.20951E+02</wgt>
<wgt id='11006'>0.21235E+02</wgt>
<wgt id='11007'>0.21201E+02</wgt>
<wgt id='11008'>0.21204E+02</wgt>
<wgt id='11009'>0.21140E+02</wgt>
<wgt id='11010'>0.21292E+02</wgt>
<wgt id='11011'>0.21117E+02</wgt>
<wgt id='11012'>0.21262E+02</wgt>
<wgt id='11013'>0.21332E+02</wgt>
<wgt id='11014'>0.21174E+02</wgt>
<wgt id='11015'>0.21216E+02</wgt>
<wgt id='11016'>0.21225E+02</wgt>
<wgt id='11017'>0.21425E+02</wgt>
<wgt id='11018'>0.21250E+02</wgt>
<wgt id='11019'>0.21241E+02</wgt>
<wgt id='11020'>0.21260E+02</wgt>
<wgt id='11021'>0.21319E+02</wgt>
<wgt id='11022'>0.21672E+02</wgt>
<wgt id='11023'>0.21231E+02</wgt>
<wgt id='11024'>0.21220E+02</wgt>
<wgt id='11025'>0.21184E+02</wgt>
<wgt id='11026'>0.21240E+02</wgt>
<wgt id='11027'>0.21241E+02</wgt>
<wgt id='11028'>0.21228E+02</wgt>
<wgt id='11029'>0.21227E+02</wgt>
<wgt id='11030'>0.21248E+02</wgt>
<wgt id='11031'>0.20969E+02</wgt>
<wgt id='11032'>0.21439E+02</wgt>
<wgt id='12000'>0.23734E+02</wgt>
<wgt id='12001'>0.23702E+02</wgt>
<wgt id='12002'>0.23766E+02</wgt>
<wgt id='12003'>0.23792E+02</wgt>
<wgt id='12004'>0.23675E+02</wgt>
<wgt id='12005'>0.23774E+02</wgt>
<wgt id='12006'>0.23693E+02</wgt>
<wgt id='12007'>0.23799E+02</wgt>
<wgt id='12008'>0.23670E+02</wgt>
<wgt id='12009'>0.23774E+02</wgt>
<wgt id='12010'>0.23695E+02</wgt>
<wgt id='12011'>0.23701E+02</wgt>
<wgt id='12012'>0.23771E+02</wgt>
<wgt id='12013'>0.23638E+02</wgt>
<wgt id='12014'>0.23831E+02</wgt>
<wgt id='12015'>0.23738E+02</wgt>
<wgt id='12016'>0.23695E+02</wgt>
<wgt id='12017'>0.23803E+02</wgt>
<wgt id='12018'>0.23656E+02</wgt>
<wgt id='12019'>0.23643E+02</wgt>
<wgt id='12020'>0.23821E+02</wgt>
<wgt id='12021'>0.23831E+02</wgt>
<wgt id='12022'>0.23609E+02</wgt>
<wgt id='12023'>0.23651E+02</wgt>
<wgt id='12024'>0.23696E+02</wgt>
<wgt id='12025'>0.23813E+02</wgt>
<wgt id='12026'>0.23689E+02</wgt>
<wgt id='12027'>0.23687E+02</wgt>
<wgt id='12028'>0.23801E+02</wgt>
<wgt id='12050'>0.23734E+02</wgt>
<wgt id='12051'>0.23710E+02</wgt>
<wgt id='12052'>0.23751E+02</wgt>
<wgt id='12053'>0.23705E+02</wgt>
<wgt id='12054'>0.23746E+02</wgt>
<wgt id='12055'>0.23798E+02</wgt>
<wgt id='12056'>0.23530E+02</wgt>
<wgt id='12057'>0.23636E+02</wgt>
<wgt id='12058'>0.23823E+02</wgt>
<wgt id='12059'>0.23672E+02</wgt>
<wgt id='12060'>0.23800E+02</wgt>
<wgt id='12061'>0.23738E+02</wgt>
<wgt id='12062'>0.23779E+02</wgt>
<wgt id='12063'>0.23501E+02</wgt>
<wgt id='13000'>0.21396E+02</wgt>
<wgt id='13001'>0.21380E+02</wgt>
<wgt id='13002'>0.21410E+02</wgt>
<wgt id='13003'>0.21423E+02</wgt>
<wgt id='13004'>0.21367E+02</wgt>
<wgt id='13005'>0.21448E+02</wgt>
<wgt id='13006'>0.21342E+02</wgt>
<wgt id='13007'>0.21488E+02</wgt>
<wgt id='13008'>0.21304E+02</wgt>
<wgt id='13009'>0.21403E+02</wgt>
<wgt id='13010'>0.21389E+02</wgt>
<wgt id='13011'>0.21447E+02</wgt>
<wgt id='13012'>0.21343E+02</wgt>
<wgt id='13013'>0.21329E+02</wgt>
<wgt id='13014'>0.21461E+02</wgt>
<wgt id='13015'>0.21359E+02</wgt>
<wgt id='13016'>0.21411E+02</wgt>
<wgt id='13017'>0.21381E+02</wgt>
<wgt id='13018'>0.21404E+02</wgt>
<wgt id='13019'>0.21356E+02</wgt>
<wgt id='13020'>0.21432E+02</wgt>
<wgt id='13021'>0.21209E+02</wgt>
<wgt id='13022'>0.21551E+02</wgt>
<wgt id='13023'>0.21413E+02</wgt>
<wgt id='13024'>0.21375E+02</wgt>
<wgt id='13025'>0.21356E+02</wgt>
<wgt id='13026'>0.21382E+02</wgt>
<wgt id='13027'>0.21410E+02</wgt>
<wgt id='13028'>0.21403E+02</wgt>
<wgt id='13050'>0.21396E+02</wgt>
<wgt id='13051'>0.21400E+02</wgt>
<wgt id='13052'>0.21349E+02</wgt>
<wgt id='13053'>0.21391E+02</wgt>
<wgt id='13054'>0.21387E+02</wgt>
<wgt id='13055'>0.21381E+02</wgt>
<wgt id='13056'>0.21398E+02</wgt>
<wgt id='13057'>0.21318E+02</wgt>
<wgt id='13058'>0.21509E+02</wgt>
<wgt id='13059'>0.21337E+02</wgt>
<wgt id='13060'>0.21476E+02</wgt>
<wgt id='13061'>0.21343E+02</wgt>
<wgt id='13062'>0.21554E+02</wgt>
<wgt id='13063'>0.21245E+02</wgt>
<wgt id='14000'>0.22184E+02</wgt>
<wgt id='14001'>0.22180E+02</wgt>
<wgt id='14002'>0.22176E+02</wgt>
<wgt id='14003'>0.22173E+02</wgt>
<wgt id='14004'>0.22169E+02</wgt>
<wgt id='14005'>0.22166E+02</wgt>
<wgt id='14006'>0.22162E+02</wgt>
<wgt id='14007'>0.22159E+02</wgt>
<wgt id='14008'>0.22155E+02</wgt>
<wgt id='14009'>0.22151E+02</wgt>
<wgt id='14010'>0.22148E+02</wgt>
<wgt id='14011'>0.22144E+02</wgt>
<wgt id='14012'>0.22141E+02</wgt>
<wgt id='14013'>0.22137E+02</wgt>
<wgt id='14014'>0.22134E+02</wgt>
<wgt id='14015'>0.22130E+02</wgt>
<wgt id='14016'>0.22126E+02</wgt>
<wgt id='14017'>0.22123E+02</wgt>
<wgt id='14018'>0.22119E+02</wgt>
<wgt id='14019'>0.22116E+02</wgt>
<wgt id='14020'>0.22112E+02</wgt>
<wgt id='14021'>0.22109E+02</wgt>
<wgt id='14022'>0.22105E+02</wgt>
<wgt id='14023'>0.22101E+02</wgt>
<wgt id='14024'>0.22098E+02</wgt>
<wgt id='14025'>0.22094E+02</wgt>
<wgt id='14026'>0.22091E+02</wgt>
<wgt id='14027'>0.22087E+02</wgt>
<wgt id='14028'>0.22084E+02</wgt>
<wgt id='14029'>0.22080E+02</wgt>
<wgt id='14030'>0.22076E+02</wgt>
<wgt id='15000'>0.20987E+02</wgt>
<wgt id='15001'>0.21029E+02</wgt>
<wgt id='15002'>0.21100E+02</wgt>
<wgt id='15003'>0.20790E+02</wgt>
<wgt id='15004'>0.20946E+02</wgt>
<wgt id='15005'>0.21105E+02</wgt>
<wgt id='15006'>0.20922E+02</wgt>
<wgt id='15007'>0.20984E+02</wgt>
<wgt id='15008'>0.21031E+02</wgt>
<wgt id='15009'>0.20976E+02</wgt>
<wgt id='15010'>0.20958E+02</wgt>
<wgt id='15011'>0.21218E+02</wgt>
<wgt id='15012'>0.20701E+02</wgt>
<wgt id='15013'>0.20702E+02</wgt>
<wgt id='15014'>0.20726E+02</wgt>
<wgt id='15015'>0.20955E+02</wgt>
<wgt id='15016'>0.21053E+02</wgt>
<wgt id='15017'>0.21006E+02</wgt>
<wgt id='15018'>0.20994E+02</wgt>
<wgt id='15019'>0.20972E+02</wgt>
<wgt id='15020'>0.21075E+02</wgt>
<wgt id='15021'>0.20984E+02</wgt>
<wgt id='15022'>0.21012E+02</wgt>
<wgt id='15023'>0.20956E+02</wgt>
<wgt id='15024'>0.20954E+02</wgt>
<wgt id='15025'>0.21018E+02</wgt>
<wgt id='15026'>0.20999E+02</wgt>
<wgt id='15027'>0.20971E+02</wgt>
<wgt id='15028'>0.21003E+02</wgt>
<wgt id='15029'>0.21007E+02</wgt>
<wgt id='15030'>0.21002E+02</wgt>
<wgt id='15031'>0.20983E+02</wgt>
<wgt id='15032'>0.20999E+02</wgt>
<wgt id='15033'>0.21014E+02</wgt>
<wgt id='15034'>0.20973E+02</wgt>
<wgt id='15035'>0.21023E+02</wgt>
<wgt id='15036'>0.20985E+02</wgt>
<wgt id='15037'>0.21008E+02</wgt>
<wgt id='15038'>0.20986E+02</wgt>
<wgt id='15039'>0.20987E+02</wgt>
<wgt id='15040'>0.20962E+02</wgt>
<wgt id='15041'>0.20976E+02</wgt>
<wgt id='15042'>0.20982E+02</wgt>
<wgt id='15043'>0.20971E+02</wgt>
<wgt id='15044'>0.20994E+02</wgt>
<wgt id='15045'>0.20982E+02</wgt>
<wgt id='15046'>0.20958E+02</wgt>
<wgt id='15047'>0.20975E+02</wgt>
<wgt id='15048'>0.20995E+02</wgt>
<wgt id='15049'>0.20976E+02</wgt>
<wgt id='15050'>0.20992E+02</wgt>
<wgt id='15051'>0.20994E+02</wgt>
<wgt id='15052'>0.20991E+02</wgt>
<wgt id='15053'>0.20990E+02</wgt>
<wgt id='15054'>0.20976E+02</wgt>
<wgt id='15055'>0.20984E+02</wgt>
<wgt id='15056'>0.21007E+02</wgt>
<wgt id='15057'>0.20985E+02</wgt>
<wgt id='15058'>0.20973E+02</wgt>
<wgt id='15059'>0.20978E+02</wgt>
<wgt id='15060'>0.20981E+02</wgt>
<wgt id='15061'>0.20991E+02</wgt>
<wgt id='15062'>0.20990E+02</wgt>
<wgt id='15063'>0.20996E+02</wgt>
<wgt id='15064'>0.20983E+02</wgt>
<wgt id='15065'>0.20986E+02</wgt>
<wgt id='15066'>0.20989E+02</wgt>
<wgt id='15067'>0.20994E+02</wgt>
<wgt id='15068'>0.20994E+02</wgt>
<wgt id='15069'>0.20998E+02</wgt>
<wgt id='15070'>0.20985E+02</wgt>
<wgt id='15071'>0.20999E+02</wgt>
<wgt id='15072'>0.20999E+02</wgt>
<wgt id='15073'>0.20981E+02</wgt>
<wgt id='15074'>0.20990E+02</wgt>
<wgt id='15075'>0.20986E+02</wgt>
<wgt id='15076'>0.20985E+02</wgt>
<wgt id='15077'>0.20990E+02</wgt>
<wgt id='15078'>0.20989E+02</wgt>
<wgt id='15079'>0.20984E+02</wgt>
<wgt id='15080'>0.21001E+02</wgt>
<wgt id='15081'>0.20985E+02</wgt>
<wgt id='15082'>0.20992E+02</wgt>
<wgt id='15083'>0.20981E+02</wgt>
<wgt id='15084'>0.20981E+02</wgt>
<wgt id='15085'>0.20982E+02</wgt>
<wgt id='15086'>0.20990E+02</wgt>
<wgt id='15087'>0.20975E+02</wgt>
<wgt id='15088'>0.20983E+02</wgt>
<wgt id='15089'>0.20982E+02</wgt>
<wgt id='15090'>0.20990E+02</wgt>
<wgt id='15091'>0.20985E+02</wgt>
<wgt id='15092'>0.20986E+02</wgt>
<wgt id='15093'>0.20984E+02</wgt>
<wgt id='15094'>0.20986E+02</wgt>
<wgt id='15095'>0.20989E+02</wgt>
<wgt id='15096'>0.20983E+02</wgt>
<wgt id='15097'>0.20988E+02</wgt>
<wgt id='15098'>0.20987E+02</wgt>
<wgt id='15099'>0.20983E+02</wgt>
<wgt id='15100'>0.20987E+02</wgt>
<wgt id='15101'>0.20987E+02</wgt>
<wgt id='15102'>0.20985E+02</wgt>
<wgt id='15103'>0.20987E+02</wgt>
<wgt id='15104'>0.20987E+02</wgt>
<wgt id='15105'>0.20988E+02</wgt>
<wgt id='15106'>0.20987E+02</wgt>
<wgt id='15107'>0.20986E+02</wgt>
<wgt id='1500'>0.22103E+02</wgt>
<wgt id='1501'>0.20164E+02</wgt>
<wgt id='1502'>0.22283E+02</wgt>
<wgt id='1503'>0.21934E+02</wgt>
<wgt id='1504'>0.21843E+02</wgt>
<wgt id='1505'>0.19351E+02</wgt>
<wgt id='1506'>0.22093E+02</wgt>
<wgt id='1507'>0.22489E+02</wgt>
<wgt id='1508'>0.21876E+02</wgt>
<wgt id='1509'>0.22066E+02</wgt>
<wgt id='1510'>0.21507E+02</wgt>
<wgt id='1511'>0.21840E+02</wgt>
<wgt id='1512'>0.22493E+02</wgt>
<wgt id='1513'>0.22467E+02</wgt>
<wgt id='1514'>0.21486E+02</wgt>
<wgt id='1515'>0.22039E+02</wgt>
<wgt id='1516'>0.22548E+02</wgt>
<wgt id='1517'>0.21712E+02</wgt>
<wgt id='1518'>0.21878E+02</wgt>
<wgt id='1519'>0.22310E+02</wgt>
<wgt id='1520'>0.22362E+02</wgt>
<wgt id='1521'>0.22218E+02</wgt>
<wgt id='1522'>0.21980E+02</wgt>
<wgt id='1523'>0.23849E+02</wgt>
<wgt id='1524'>0.21870E+02</wgt>
<wgt id='1525'>0.22472E+02</wgt>
<wgt id='1526'>0.21622E+02</wgt>
<wgt id='1527'>0.21920E+02</wgt>
<wgt id='1528'>0.21986E+02</wgt>
<wgt id='1529'>0.21758E+02</wgt>
<wgt id='1530'>0.22516E+02</wgt>
<wgt id='1531'>0.21994E+02</wgt>
<wgt id='1532'>0.21496E+02</wgt>
<wgt id='1533'>0.22779E+02</wgt>
<wgt id='1534'>0.22280E+02</wgt>
<wgt id='1535'>0.22807E+02</wgt>
<wgt id='1536'>0.22856E+02</wgt>
<wgt id='1537'>0.22300E+02</wgt>
<wgt id='1538'>0.21723E+02</wgt>
<wgt id='1539'>0.21211E+02</wgt>
<wgt id='1540'>0.22451E+02</wgt>
<wgt id='1541'>0.21982E+02</wgt>
<wgt id='1542'>0.22567E+02</wgt>
<wgt id='1543'>0.22387E+02</wgt>
<wgt id='1544'>0.21919E+02</wgt>
<wgt id='1545'>0.22646E+02</wgt>
<wgt id='1546'>0.22202E+02</wgt>
<wgt id='1547'>0.21720E+02</wgt>
<wgt id='1548'>0.21637E+02</wgt>
<wgt id='1549'>0.22431E+02</wgt>
<wgt id='1550'>0.22216E+02</wgt>
<wgt id='1551'>0.22131E+02</wgt>
<wgt id='1552'>0.22086E+02</wgt>
<wgt id='1553'>0.22531E+02</wgt>
<wgt id='1554'>0.22079E+02</wgt>
<wgt id='1555'>0.22224E+02</wgt>
<wgt id='1556'>0.21450E+02</wgt>
<wgt id='1557'>0.23119E+02</wgt>
<wgt id='1558'>0.21945E+02</wgt>
<wgt id='1559'>0.22383E+02</wgt>
<wgt id='1560'>0.22034E+02</wgt>
<wgt id='1561'>0.22420E+02</wgt>
<wgt id='1562'>0.22153E+02</wgt>
<wgt id='1563'>0.22565E+02</wgt>
<wgt id='1564'>0.21873E+02</wgt>
<wgt id='1565'>0.22464E+02</wgt>
<wgt id='1566'>0.22163E+02</wgt>
<wgt id='1567'>0.23108E+02</wgt>
<wgt id='1568'>0.21819E+02</wgt>
<wgt id='1569'>0.21593E+02</wgt>
<wgt id='1570'>0.22216E+02</wgt>
<wgt id='1571'>0.22763E+02</wgt>
<wgt id='1572'>0.21875E+02</wgt>
<wgt id='1573'>0.20319E+02</wgt>
<wgt id='1574'>0.22311E+02</wgt>
<wgt id='1575'>0.21872E+02</wgt>
<wgt id='1576'>0.21481E+02</wgt>
<wgt id='1577'>0.22279E+02</wgt>
<wgt id='1578'>0.23015E+02</wgt>
<wgt id='1579'>0.22022E+02</wgt>
<wgt id='1580'>0.22303E+02</wgt>
<wgt id='1581'>0.22243E+02</wgt>
<wgt id='1582'>0.21837E+02</wgt>
<wgt id='1583'>0.22099E+02</wgt>
<wgt id='1584'>0.22221E+02</wgt>
<wgt id='1585'>0.21449E+02</wgt>
<wgt id='1586'>0.22050E+02</wgt>
<wgt id='1587'>0.22049E+02</wgt>
<wgt id='1588'>0.22167E+02</wgt>
<wgt id='1589'>0.22511E+02</wgt>
<wgt id='1590'>0.22013E+02</wgt>
<wgt id='1591'>0.21356E+02</wgt>
<wgt id='1592'>0.22774E+02</wgt>
<wgt id='1593'>0.21901E+02</wgt>
<wgt id='1594'>0.22683E+02</wgt>
<wgt id='1595'>0.21731E+02</wgt>
<wgt id='1596'>0.22454E+02</wgt>
<wgt id='1597'>0.22268E+02</wgt>
<wgt id='1598'>0.23136E+02</wgt>
<wgt id='1599'>0.22762E+02</wgt>
<wgt id='1600'>0.21899E+02</wgt>
<wgt id='1601'>0.21769E+02</wgt>
<wgt id='1602'>0.22226E+02</wgt>
<wgt id='1700'>0.21312E+02</wgt>
<wgt id='1800'>0.25976E+02</wgt>
<wgt id='1850'>0.30645E+02</wgt>
<wgt id='1900'>0.25319E+02</wgt>
<wgt id='1950'>0.29507E+02</wgt>
</rwgt>
</event>
<event>
      4   9999  2.16956E+01  5.26260E+01 -1.00000E+00  1.35847E-01
      21    -1     0     0   502   501  0.000000000E+00  0.000000000E+00  6.508446436E+01  6.508446436E+01  0.000000000E+00  0.00000E+00  9.000E+00
      21    -1     0     0   501   511  0.000000000E+00  0.000000000E+00 -1.613434086E+02  1.613434086E+02  0.000000000E+00  0.00000E+00  9.000E+00
      25     1     1     2     0     0 -5.228121389E+00 -5.236571288E+01 -2.510919708E+01  1.379304851E+02  1.249993832E+02  0.00000E+00  9.000E+00
      21     1     1     2   502   511  5.228121389E+00  5.236571288E+01 -7.114974716E+01  8.849738787E+01  9.536743164E-07  0.00000E+00  9.000E+00
#rwgt            1           1   11.815237159928399                1         872           0
<rwgt>
<wgt id='1001'>0.21696E+02</wgt>
<wgt id='1002'>0.22026E+02</wgt>
<wgt id='1003'>0.21552E+02</wgt>
<wgt id='1004'>0.18774E+02</wgt>
<wgt id='1005'>0.19137E+02</wgt>
<wgt id='1006'>0.18509E+02</wgt>
<wgt id='1007'>0.25295E+02</wgt>
<wgt id='1008'>0.25541E+02</wgt>
<wgt id='1009'>0.25382E+02</wgt>
<wgt id='2000'>0.21696E+02</wgt>
<wgt id='2001'>0.21675E+02</wgt>
<wgt id='2002'>0.21785E+02</wgt>
<wgt id='2003'>0.21783E+02</wgt>
<wgt id='2004'>0.21712E+02</wgt>
<wgt id='2005'>0.21641E+02</wgt>
<wgt id='2006'>0.21635E+02</wgt>
<wgt id='2007'>0.21607E+02</wgt>
<wgt id='2008'>0.21648E+02</wgt>
<wgt id='2009'>0.21729E+02</wgt>
<wgt id='2010'>0.21686E+02</wgt>
<wgt id='2011'>0.21775E+02</wgt>
<wgt id='2012'>0.21793E+02</wgt>
<wgt id='2013'>0.21870E+02</wgt>
<wgt id='2014'>0.21772E+02</wgt>
<wgt id='2015'>0.21740E+02</wgt>
<wgt id='2016'>0.21649E+02</wgt>
<wgt id='2017'>0.21694E+02</wgt>
<wgt id='2018'>0.21772E+02</wgt>
<wgt id='2019'>0.21682E+02</wgt>
<wgt id='2020'>0.21745E+02</wgt>
<wgt id='2021'>0.21666E+02</wgt>
<wgt id='2022'>0.21691E+02</wgt>
<wgt id='2023'>0.21710E+02</wgt>
<wgt id='2024'>0.21701E+02</wgt>
<wgt id='2025'>0.21680E+02</wgt>
<wgt id='2026'>0.21693E+02</wgt>
<wgt id='2027'>0.21688E+02</wgt>
<wgt id='2028'>0.21699E+02</wgt>
<wgt id='2029'>0.21706E+02</wgt>
<wgt id='2030'>0.21689E+02</wgt>
<wgt id='2031'>0.21707E+02</wgt>
<wgt id='2032'>0.21707E+02</wgt>
<wgt id='2033'>0.21699E+02</wgt>
<wgt id='2034'>0.21717E+02</wgt>
<wgt id='2035'>0.21685E+02</wgt>
<wgt id='2036'>0.21693E+02</wgt>
<wgt id='2037'>0.21714E+02</wgt>
<wgt id='2038'>0.21703E+02</wgt>
<wgt id='2039'>0.21680E+02</wgt>
<wgt id='2040'>0.21685E+02</wgt>
<wgt id='2041'>0.21686E+02</wgt>
<wgt id='2042'>0.21688E+02</wgt>
<wgt id='2043'>0.21724E+02</wgt>
<wgt id='2044'>0.21710E+02</wgt>
<wgt id='2045'>0.21694E+02</wgt>
<wgt id='2046'>0.21665E+02</wgt>
<wgt id='2047'>0.21676E+02</wgt>
<wgt id='2048'>0.21683E+02</wgt>
<wgt id='2049'>0.21698E+02</wgt>
<wgt id='2050'>0.21688E+02</wgt>
<wgt id='2051'>0.21716E+02</wgt>
<wgt id='2052'>0.21701E+02</wgt>
<wgt id='2053'>0.21691E+02</wgt>
<wgt id='2054'>0.21698E+02</wgt>
<wgt id='2055'>0.21692E+02</wgt>
<wgt id='2056'>0.21708E+02</wgt>
<wgt id='2057'>0.21712E+02</wgt>
<wgt id='2058'>0.21708E+02</wgt>
<wgt id='2059'>0.21697E+02</wgt>
<wgt id='2060'>0.21687E+02</wgt>
<wgt id='2061'>0.21705E+02</wgt>
<wgt id='2062'>0.21704E+02</wgt>
<wgt id='2063'>0.21682E+02</wgt>
<wgt id='2064'>0.21706E+02</wgt>
<wgt id='2065'>0.21683E+02</wgt>
<wgt id='2066'>0.21692E+02</wgt>
<wgt id='2067'>0.21693E+02</wgt>
<wgt id='2068'>0.21695E+02</wgt>
<wgt id='2069'>0.21689E+02</wgt>
<wgt id='2070'>0.21694E+02</wgt>
<wgt id='2071'>0.21698E+02</wgt>
<wgt id='2072'>0.21701E+02</wgt>
<wgt id='2073'>0.21686E+02</wgt>
<wgt id='2074'>0.21684E+02</wgt>
<wgt id='2075'>0.21686E+02</wgt>
<wgt id='2076'>0.21711E+02</wgt>
<wgt id='2077'>0.21676E+02</wgt>
<wgt id='2078'>0.21702E+02</wgt>
<wgt id='2079'>0.21701E+02</wgt>
<wgt id='2080'>0.21705E+02</wgt>
<wgt id='2081'>0.21693E+02</wgt>
<wgt id='2082'>0.21700E+02</wgt>
<wgt id='2083'>0.21700E+02</wgt>
<wgt id='2084'>0.21685E+02</wgt>
<wgt id='2085'>0.21707E+02</wgt>
<wgt id='2086'>0.21707E+02</wgt>
<wgt id='2087'>0.21684E+02</wgt>
<wgt id='2088'>0.21693E+02</wgt>
<wgt id='2089'>0.21692E+02</wgt>
<wgt id='2090'>0.21697E+02</wgt>
<wgt id='2091'>0.21692E+02</wgt>
<wgt id='2092'>0.21695E+02</wgt>
<wgt id='2093'>0.21697E+02</wgt>
<wgt id='2094'>0.21696E+02</wgt>
<wgt id='2095'>0.21703E+02</wgt>
<wgt id='2096'>0.21690E+02</wgt>
<wgt id='2097'>0.21707E+02</wgt>
<wgt id='2098'>0.21690E+02</wgt>
<wgt id='2099'>0.21698E+02</wgt>
<wgt id='2100'>0.21700E+02</wgt>
<wgt id='2101'>0.21108E+02</wgt>
<wgt id='2102'>0.22220E+02</wgt>
<wgt id='2104'>0.19053E+02</wgt>
<wgt id='2105'>0.19516E+02</wgt>
<wgt id='2106'>0.20047E+02</wgt>
<wgt id='2107'>0.20646E+02</wgt>
<wgt id='2108'>0.21472E+02</wgt>
<wgt id='2109'>0.22000E+02</wgt>
<wgt id='2110'>0.22740E+02</wgt>
<wgt id='2111'>0.23287E+02</wgt>
<wgt id='3000'>0.22571E+02</wgt>
<wgt id='3001'>0.22650E+02</wgt>
<wgt id='3002'>0.22478E+02</wgt>
<wgt id='3003'>0.22649E+02</wgt>
<wgt id='3004'>0.22608E+02</wgt>
<wgt id='3005'>0.22668E+02</wgt>
<wgt id='3006'>0.22604E+02</wgt>
<wgt id='3007'>0.22630E+02</wgt>
<wgt id='3008'>0.22518E+02</wgt>
<wgt id='3009'>0.22566E+02</wgt>
<wgt id='3010'>0.22500E+02</wgt>
<wgt id='3011'>0.22611E+02</wgt>
<wgt id='3012'>0.22707E+02</wgt>
<wgt id='3013'>0.22417E+02</wgt>
<wgt id='3014'>0.22651E+02</wgt>
<wgt id='3015'>0.22647E+02</wgt>
<wgt id='3016'>0.22575E+02</wgt>
<wgt id='3017'>0.22665E+02</wgt>
<wgt id='3018'>0.22587E+02</wgt>
<wgt id='3019'>0.22508E+02</wgt>
<wgt id='3020'>0.22572E+02</wgt>
<wgt id='3021'>0.22531E+02</wgt>
<wgt id='3022'>0.22568E+02</wgt>
<wgt id='3023'>0.22559E+02</wgt>
<wgt id='3024'>0.22581E+02</wgt>
<wgt id='3025'>0.22582E+02</wgt>
<wgt id='3026'>0.22563E+02</wgt>
<wgt id='3027'>0.22581E+02</wgt>
<wgt id='3028'>0.22577E+02</wgt>
<wgt id='3029'>0.22558E+02</wgt>
<wgt id='3030'>0.22599E+02</wgt>
<wgt id='3031'>0.22583E+02</wgt>
<wgt id='3032'>0.22563E+02</wgt>
<wgt id='3033'>0.22566E+02</wgt>
<wgt id='3034'>0.22567E+02</wgt>
<wgt id='3035'>0.22581E+02</wgt>
<wgt id='3036'>0.22586E+02</wgt>
<wgt id='3037'>0.22540E+02</wgt>
<wgt id='3038'>0.22585E+02</wgt>
<wgt id='3039'>0.22573E+02</wgt>
<wgt id='3040'>0.22574E+02</wgt>
<wgt id='3041'>0.22584E+02</wgt>
<wgt id='3042'>0.22568E+02</wgt>
<wgt id='3043'>0.22552E+02</wgt>
<wgt id='3044'>0.22583E+02</wgt>
<wgt id='3045'>0.22586E+02</wgt>
<wgt id='3046'>0.22573E+02</wgt>
<wgt id='3047'>0.22568E+02</wgt>
<wgt id='3048'>0.22588E+02</wgt>
<wgt id='3049'>0.22562E+02</wgt>
<wgt id='3050'>0.22599E+02</wgt>
<wgt id='3051'>0.22551E+02</wgt>
<wgt id='3052'>0.22561E+02</wgt>
<wgt id='3053'>0.22593E+02</wgt>
<wgt id='3054'>0.22586E+02</wgt>
<wgt id='3055'>0.22552E+02</wgt>
<wgt id='3056'>0.22563E+02</wgt>
<wgt id='3057'>0.22585E+02</wgt>
<wgt id='3058'>0.22562E+02</wgt>
<wgt id='3059'>0.22578E+02</wgt>
<wgt id='3060'>0.22579E+02</wgt>
<wgt id='3061'>0.22586E+02</wgt>
<wgt id='3062'>0.22560E+02</wgt>
<wgt id='3063'>0.22580E+02</wgt>
<wgt id='3064'>0.22586E+02</wgt>
<wgt id='3065'>0.22578E+02</wgt>
<wgt id='3066'>0.22579E+02</wgt>
<wgt id='3067'>0.22591E+02</wgt>
<wgt id='3068'>0.22561E+02</wgt>
<wgt id='3069'>0.22573E+02</wgt>
<wgt id='3070'>0.22571E+02</wgt>
<wgt id='3071'>0.22575E+02</wgt>
<wgt id='3072'>0.22570E+02</wgt>
<wgt id='3073'>0.22575E+02</wgt>
<wgt id='3074'>0.22586E+02</wgt>
<wgt id='3075'>0.22580E+02</wgt>
<wgt id='3076'>0.22586E+02</wgt>
<wgt id='3077'>0.22571E+02</wgt>
<wgt id='3078'>0.22576E+02</wgt>
<wgt id='3079'>0.22555E+02</wgt>
<wgt id='3080'>0.22571E+02</wgt>
<wgt id='3081'>0.22560E+02</wgt>
<wgt id='3082'>0.22559E+02</wgt>
<wgt id='3083'>0.22579E+02</wgt>
<wgt id='3084'>0.22562E+02</wgt>
<wgt id='3085'>0.22586E+02</wgt>
<wgt id='3086'>0.22558E+02</wgt>
<wgt id='3087'>0.22546E+02</wgt>
<wgt id='3088'>0.22571E+02</wgt>
<wgt id='3089'>0.22571E+02</wgt>
<wgt id='3090'>0.22575E+02</wgt>
<wgt id='3091'>0.22572E+02</wgt>
<wgt id='3092'>0.22568E+02</wgt>
<wgt id='3093'>0.22576E+02</wgt>
<wgt id='3094'>0.22576E+02</wgt>
<wgt id='3095'>0.22580E+02</wgt>
<wgt id='3096'>0.22570E+02</wgt>
<wgt id='3097'>0.22572E+02</wgt>
<wgt id='3098'>0.22570E+02</wgt>
<wgt id='3099'>0.22573E+02</wgt>
<wgt id='3100'>0.22575E+02</wgt>
<wgt id='3101'>0.21972E+02</wgt>
<wgt id='3102'>0.23223E+02</wgt>
<wgt id='5000'>0.21180E+02</wgt>
<wgt id='5001'>0.21168E+02</wgt>
<wgt id='5002'>0.21188E+02</wgt>
<wgt id='5003'>0.21090E+02</wgt>
<wgt id='5004'>0.21197E+02</wgt>
<wgt id='5005'>0.20875E+02</wgt>
<wgt id='5006'>0.21469E+02</wgt>
<wgt id='5007'>0.21291E+02</wgt>
<wgt id='5008'>0.21009E+02</wgt>
<wgt id='5009'>0.21371E+02</wgt>
<wgt id='5010'>0.21099E+02</wgt>
<wgt id='5011'>0.21169E+02</wgt>
<wgt id='5012'>0.21179E+02</wgt>
<wgt id='5013'>0.20704E+02</wgt>
<wgt id='5014'>0.21351E+02</wgt>
<wgt id='5015'>0.21291E+02</wgt>
<wgt id='5016'>0.20872E+02</wgt>
<wgt id='5017'>0.21206E+02</wgt>
<wgt id='5018'>0.21143E+02</wgt>
<wgt id='5019'>0.21088E+02</wgt>
<wgt id='5020'>0.21251E+02</wgt>
<wgt id='5021'>0.21228E+02</wgt>
<wgt id='5022'>0.21148E+02</wgt>
<wgt id='5023'>0.21176E+02</wgt>
<wgt id='5024'>0.21182E+02</wgt>
<wgt id='5025'>0.21122E+02</wgt>
<wgt id='5026'>0.21226E+02</wgt>
<wgt id='5027'>0.21331E+02</wgt>
<wgt id='5028'>0.20928E+02</wgt>
<wgt id='5029'>0.20899E+02</wgt>
<wgt id='5030'>0.21351E+02</wgt>
<wgt id='5031'>0.21014E+02</wgt>
<wgt id='5032'>0.21426E+02</wgt>
<wgt id='5033'>0.21020E+02</wgt>
<wgt id='5034'>0.21317E+02</wgt>
<wgt id='5035'>0.20901E+02</wgt>
<wgt id='5036'>0.21402E+02</wgt>
<wgt id='5037'>0.21154E+02</wgt>
<wgt id='5038'>0.21198E+02</wgt>
<wgt id='5039'>0.21468E+02</wgt>
<wgt id='5040'>0.21030E+02</wgt>
<wgt id='5041'>0.21113E+02</wgt>
<wgt id='5042'>0.21170E+02</wgt>
<wgt id='5043'>0.21237E+02</wgt>
<wgt id='5044'>0.20893E+02</wgt>
<wgt id='5045'>0.21752E+02</wgt>
<wgt id='5046'>0.21021E+02</wgt>
<wgt id='5047'>0.21401E+02</wgt>
<wgt id='5048'>0.21173E+02</wgt>
<wgt id='5049'>0.21186E+02</wgt>
<wgt id='5050'>0.21140E+02</wgt>
<wgt id='5051'>0.21188E+02</wgt>
<wgt id='5052'>0.21156E+02</wgt>
<wgt id='5053'>0.20912E+02</wgt>
<wgt id='5054'>0.21539E+02</wgt>
<wgt id='5055'>0.21051E+02</wgt>
<wgt id='5056'>0.21344E+02</wgt>
<wgt id='5060'>0.20674E+02</wgt>
<wgt id='5070'>0.21646E+02</wgt>
<wgt id='4000'>0.22222E+02</wgt>
<wgt id='4001'>0.22213E+02</wgt>
<wgt id='4002'>0.22234E+02</wgt>
<wgt id='4003'>0.22701E+02</wgt>
<wgt id='4004'>0.22025E+02</wgt>
<wgt id='4005'>0.22185E+02</wgt>
<wgt id='4006'>0.22202E+02</wgt>
<wgt id='4007'>0.22475E+02</wgt>
<wgt id='4008'>0.22088E+02</wgt>
<wgt id='4009'>0.21942E+02</wgt>
<wgt id='4010'>0.22416E+02</wgt>
<wgt id='4011'>0.22517E+02</wgt>
<wgt id='4012'>0.22037E+02</wgt>
<wgt id='4013'>0.21712E+02</wgt>
<wgt id='4014'>0.22568E+02</wgt>
<wgt id='4015'>0.22414E+02</wgt>
<wgt id='4016'>0.22092E+02</wgt>
<wgt id='4017'>0.22057E+02</wgt>
<wgt id='4018'>0.22420E+02</wgt>
<wgt id='4019'>0.22361E+02</wgt>
<wgt id='4020'>0.22072E+02</wgt>
<wgt id='4021'>0.22284E+02</wgt>
<wgt id='4022'>0.22110E+02</wgt>
<wgt id='4023'>0.22130E+02</wgt>
<wgt id='4024'>0.22309E+02</wgt>
<wgt id='4025'>0.21940E+02</wgt>
<wgt id='4026'>0.22479E+02</wgt>
<wgt id='4027'>0.22166E+02</wgt>
<wgt id='4028'>0.22297E+02</wgt>
<wgt id='4029'>0.22082E+02</wgt>
<wgt id='4030'>0.22271E+02</wgt>
<wgt id='4031'>0.22250E+02</wgt>
<wgt id='4032'>0.22187E+02</wgt>
<wgt id='4033'>0.22216E+02</wgt>
<wgt id='4034'>0.22230E+02</wgt>
<wgt id='4035'>0.22503E+02</wgt>
<wgt id='4036'>0.21944E+02</wgt>
<wgt id='4037'>0.22353E+02</wgt>
<wgt id='4038'>0.22032E+02</wgt>
<wgt id='4039'>0.22232E+02</wgt>
<wgt id='4040'>0.22212E+02</wgt>
<wgt id='4041'>0.22404E+02</wgt>
<wgt id='4042'>0.22033E+02</wgt>
<wgt id='4043'>0.22568E+02</wgt>
<wgt id='4044'>0.21915E+02</wgt>
<wgt id='4045'>0.21953E+02</wgt>
<wgt id='4046'>0.22177E+02</wgt>
<wgt id='4047'>0.22072E+02</wgt>
<wgt id='4048'>0.22424E+02</wgt>
<wgt id='4049'>0.22325E+02</wgt>
<wgt id='4050'>0.21945E+02</wgt>
<wgt id='4051'>0.22225E+02</wgt>
<wgt id='4052'>0.22226E+02</wgt>
<wgt id='4053'>0.21625E+02</wgt>
<wgt id='4054'>0.22398E+02</wgt>
<wgt id='4055'>0.22050E+02</wgt>
<wgt id='4056'>0.22410E+02</wgt>
<wgt id='4060'>0.21631E+02</wgt>
<wgt id='4070'>0.22789E+02</wgt>
<wgt id='4080'>0.22204E+02</wgt>
<wgt id='6000'>0.22562E+02</wgt>
<wgt id='6001'>0.22566E+02</wgt>
<wgt id='6002'>0.22558E+02</wgt>
<wgt id='6003'>0.22570E+02</wgt>
<wgt id='6004'>0.22557E+02</wgt>
<wgt id='6005'>0.22633E+02</wgt>
<wgt id='6006'>0.22496E+02</wgt>
<wgt id='6007'>0.22499E+02</wgt>
<wgt id='6008'>0.22632E+02</wgt>
<wgt id='6009'>0.22604E+02</wgt>
<wgt id='6010'>0.22521E+02</wgt>
<wgt id='6011'>0.22590E+02</wgt>
<wgt id='6012'>0.22501E+02</wgt>
<wgt id='6013'>0.22550E+02</wgt>
<wgt id='6014'>0.22585E+02</wgt>
<wgt id='6015'>0.22525E+02</wgt>
<wgt id='6016'>0.22583E+02</wgt>
<wgt id='6017'>0.22463E+02</wgt>
<wgt id='6018'>0.22679E+02</wgt>
<wgt id='6019'>0.22589E+02</wgt>
<wgt id='6020'>0.22538E+02</wgt>
<wgt id='6021'>0.22499E+02</wgt>
<wgt id='6022'>0.22645E+02</wgt>
<wgt id='6023'>0.22428E+02</wgt>
<wgt id='6024'>0.22652E+02</wgt>
<wgt id='6025'>0.22329E+02</wgt>
<wgt id='6026'>0.22775E+02</wgt>
<wgt id='6027'>0.22596E+02</wgt>
<wgt id='6028'>0.22558E+02</wgt>
<wgt id='6029'>0.22664E+02</wgt>
<wgt id='6030'>0.22445E+02</wgt>
<wgt id='6031'>0.22565E+02</wgt>
<wgt id='6032'>0.22560E+02</wgt>
<wgt id='6033'>0.22596E+02</wgt>
<wgt id='6034'>0.22528E+02</wgt>
<wgt id='6035'>0.22550E+02</wgt>
<wgt id='6036'>0.22624E+02</wgt>
<wgt id='6037'>0.22574E+02</wgt>
<wgt id='6038'>0.22550E+02</wgt>
<wgt id='6039'>0.22541E+02</wgt>
<wgt id='6040'>0.22585E+02</wgt>
<wgt id='6041'>0.22499E+02</wgt>
<wgt id='6042'>0.22634E+02</wgt>
<wgt id='6043'>0.22778E+02</wgt>
<wgt id='6044'>0.22455E+02</wgt>
<wgt id='6045'>0.22550E+02</wgt>
<wgt id='6046'>0.22625E+02</wgt>
<wgt id='6047'>0.22475E+02</wgt>
<wgt id='6048'>0.22506E+02</wgt>
<wgt id='6049'>0.22516E+02</wgt>
<wgt id='6050'>0.22573E+02</wgt>
<wgt id='7000'>0.21555E+02</wgt>
<wgt id='7001'>0.21543E+02</wgt>
<wgt id='7002'>0.21572E+02</wgt>
<wgt id='7003'>0.21620E+02</wgt>
<wgt id='7004'>0.21492E+02</wgt>
<wgt id='7005'>0.21595E+02</wgt>
<wgt id='7006'>0.21539E+02</wgt>
<wgt id='7007'>0.21513E+02</wgt>
<wgt id='7008'>0.21598E+02</wgt>
<wgt id='7009'>0.21581E+02</wgt>
<wgt id='7010'>0.21530E+02</wgt>
<wgt id='7011'>0.21429E+02</wgt>
<wgt id='7012'>0.21610E+02</wgt>
<wgt id='7013'>0.21553E+02</wgt>
<wgt id='7014'>0.21558E+02</wgt>
<wgt id='7015'>0.21523E+02</wgt>
<wgt id='7016'>0.21590E+02</wgt>
<wgt id='7017'>0.21501E+02</wgt>
<wgt id='7018'>0.21585E+02</wgt>
<wgt id='7019'>0.21535E+02</wgt>
<wgt id='7020'>0.21582E+02</wgt>
<wgt id='7021'>0.21560E+02</wgt>
<wgt id='7022'>0.21551E+02</wgt>
<wgt id='7023'>0.21775E+02</wgt>
<wgt id='7024'>0.21343E+02</wgt>
<wgt id='7025'>0.21633E+02</wgt>
<wgt id='7026'>0.21362E+02</wgt>
<wgt id='7027'>0.21610E+02</wgt>
<wgt id='7028'>0.21523E+02</wgt>
<wgt id='7029'>0.21506E+02</wgt>
<wgt id='7030'>0.21702E+02</wgt>
<wgt id='7031'>0.21532E+02</wgt>
<wgt id='7032'>0.21615E+02</wgt>
<wgt id='7033'>0.21544E+02</wgt>
<wgt id='7034'>0.21587E+02</wgt>
<wgt id='7035'>0.21574E+02</wgt>
<wgt id='7036'>0.21557E+02</wgt>
<wgt id='7037'>0.21557E+02</wgt>
<wgt id='7038'>0.21565E+02</wgt>
<wgt id='7039'>0.21523E+02</wgt>
<wgt id='7040'>0.21579E+02</wgt>
<wgt id='7041'>0.21578E+02</wgt>
<wgt id='7042'>0.21492E+02</wgt>
<wgt id='7043'>0.21574E+02</wgt>
<wgt id='7044'>0.21451E+02</wgt>
<wgt id='7045'>0.21456E+02</wgt>
<wgt id='7046'>0.21543E+02</wgt>
<wgt id='7047'>0.21556E+02</wgt>
<wgt id='7048'>0.21558E+02</wgt>
<wgt id='7049'>0.21590E+02</wgt>
<wgt id='7050'>0.21464E+02</wgt>
<wgt id='7060'>0.31734E+02</wgt>
<wgt id='8000'>0.21315E+02</wgt>
<wgt id='8001'>0.21310E+02</wgt>
<wgt id='8002'>0.21320E+02</wgt>
<wgt id='8003'>0.21316E+02</wgt>
<wgt id='8004'>0.21314E+02</wgt>
<wgt id='8005'>0.21270E+02</wgt>
<wgt id='8006'>0.21308E+02</wgt>
<wgt id='8007'>0.21296E+02</wgt>
<wgt id='8008'>0.21339E+02</wgt>
<wgt id='8009'>0.21374E+02</wgt>
<wgt id='8010'>0.21313E+02</wgt>
<wgt id='8011'>0.21315E+02</wgt>
<wgt id='8012'>0.21299E+02</wgt>
<wgt id='8013'>0.21309E+02</wgt>
<wgt id='8014'>0.21304E+02</wgt>
<wgt id='8015'>0.21309E+02</wgt>
<wgt id='8016'>0.21321E+02</wgt>
<wgt id='8017'>0.21314E+02</wgt>
<wgt id='8018'>0.21314E+02</wgt>
<wgt id='8019'>0.21339E+02</wgt>
<wgt id='8020'>0.21265E+02</wgt>
<wgt id='8021'>0.21319E+02</wgt>
<wgt id='8022'>0.21215E+02</wgt>
<wgt id='8023'>0.21340E+02</wgt>
<wgt id='8024'>0.21353E+02</wgt>
<wgt id='8025'>0.21368E+02</wgt>
<wgt id='8026'>0.21344E+02</wgt>
<wgt id='8027'>0.21289E+02</wgt>
<wgt id='8028'>0.21338E+02</wgt>
<wgt id='8029'>0.21248E+02</wgt>
<wgt id='8500'>0.22374E+02</wgt>
<wgt id='8501'>0.22310E+02</wgt>
<wgt id='8502'>0.22576E+02</wgt>
<wgt id='8503'>0.22506E+02</wgt>
<wgt id='8504'>0.22314E+02</wgt>
<wgt id='8505'>0.22288E+02</wgt>
<wgt id='8506'>0.22348E+02</wgt>
<wgt id='8507'>0.22448E+02</wgt>
<wgt id='8508'>0.22584E+02</wgt>
<wgt id='8509'>0.22278E+02</wgt>
<wgt id='8510'>0.22669E+02</wgt>
<wgt id='8511'>0.22385E+02</wgt>
<wgt id='8512'>0.22176E+02</wgt>
<wgt id='8513'>0.22428E+02</wgt>
<wgt id='8514'>0.22286E+02</wgt>
<wgt id='8515'>0.22395E+02</wgt>
<wgt id='8516'>0.22419E+02</wgt>
<wgt id='8517'>0.22382E+02</wgt>
<wgt id='8518'>0.22363E+02</wgt>
<wgt id='8519'>0.22367E+02</wgt>
<wgt id='8520'>0.22339E+02</wgt>
<wgt id='8521'>0.22335E+02</wgt>
<wgt id='8522'>0.22412E+02</wgt>
<wgt id='8523'>0.22321E+02</wgt>
<wgt id='8524'>0.22435E+02</wgt>
<wgt id='8525'>0.22343E+02</wgt>
<wgt id='8526'>0.22376E+02</wgt>
<wgt id='8527'>0.22376E+02</wgt>
<wgt id='8528'>0.22321E+02</wgt>
<wgt id='8529'>0.22333E+02</wgt>
<wgt id='8530'>0.22394E+02</wgt>
<wgt id='8531'>0.22380E+02</wgt>
<wgt id='8532'>0.22376E+02</wgt>
<wgt id='8533'>0.22330E+02</wgt>
<wgt id='8534'>0.22382E+02</wgt>
<wgt id='8535'>0.22416E+02</wgt>
<wgt id='8536'>0.22341E+02</wgt>
<wgt id='8537'>0.22375E+02</wgt>
<wgt id='8538'>0.22363E+02</wgt>
<wgt id='8539'>0.22374E+02</wgt>
<wgt id='8540'>0.22388E+02</wgt>
<wgt id='8541'>0.22377E+02</wgt>
<wgt id='8542'>0.22376E+02</wgt>
<wgt id='8543'>0.22348E+02</wgt>
<wgt id='8544'>0.22392E+02</wgt>
<wgt id='8545'>0.22397E+02</wgt>
<wgt id='8546'>0.22407E+02</wgt>
<wgt id='8547'>0.22356E+02</wgt>
<wgt id='8548'>0.22347E+02</wgt>
<wgt id='8549'>0.22381E+02</wgt>
<wgt id='8550'>0.22373E+02</wgt>
<wgt id='8551'>0.22372E+02</wgt>
<wgt id='8552'>0.22374E+02</wgt>
<wgt id='8553'>0.22355E+02</wgt>
<wgt id='8554'>0.22372E+02</wgt>
<wgt id='8555'>0.22378E+02</wgt>
<wgt id='8556'>0.22367E+02</wgt>
<wgt id='8557'>0.22377E+02</wgt>
<wgt id='8558'>0.22387E+02</wgt>
<wgt id='8559'>0.22368E+02</wgt>
<wgt id='8560'>0.22358E+02</wgt>
<wgt id='8561'>0.22377E+02</wgt>
<wgt id='8562'>0.22370E+02</wgt>
<wgt id='8563'>0.22380E+02</wgt>
<wgt id='8564'>0.22375E+02</wgt>
<wgt id='8565'>0.22382E+02</wgt>
<wgt id='8566'>0.22390E+02</wgt>
<wgt id='8567'>0.22380E+02</wgt>
<wgt id='8568'>0.22381E+02</wgt>
<wgt id='8569'>0.22381E+02</wgt>
<wgt id='8570'>0.22369E+02</wgt>
<wgt id='8571'>0.22353E+02</wgt>
<wgt id='8572'>0.22365E+02</wgt>
<wgt id='8573'>0.22356E+02</wgt>
<wgt id='8574'>0.22380E+02</wgt>
<wgt id='8575'>0.22359E+02</wgt>
<wgt id='8576'>0.22381E+02</wgt>
<wgt id='8577'>0.22361E+02</wgt>
<wgt id='8578'>0.22381E+02</wgt>
<wgt id='8579'>0.22401E+02</wgt>
<wgt id='8580'>0.22363E+02</wgt>
<wgt id='8581'>0.22377E+02</wgt>
<wgt id='8582'>0.22359E+02</wgt>
<wgt id='8583'>0.22381E+02</wgt>
<wgt id='8584'>0.22390E+02</wgt>
<wgt id='8585'>0.22378E+02</wgt>
<wgt id='8586'>0.22401E+02</wgt>
<wgt id='8587'>0.22372E+02</wgt>
<wgt id='8588'>0.22370E+02</wgt>
<wgt id='8589'>0.22377E+02</wgt>
<wgt id='8590'>0.22368E+02</wgt>
<wgt id='8591'>0.22366E+02</wgt>
<wgt id='8592'>0.22375E+02</wgt>
<wgt id='8593'>0.22360E+02</wgt>
<wgt id='8594'>0.22371E+02</wgt>
<wgt id='8595'>0.22374E+02</wgt>
<wgt id='8596'>0.22369E+02</wgt>
<wgt id='8597'>0.22379E+02</wgt>
<wgt id='8598'>0.22383E+02</wgt>
<wgt id='8599'>0.22379E+02</wgt>
<wgt id='8600'>0.22375E+02</wgt>
<wgt id='8601'>0.21928E+02</wgt>
<wgt id='8602'>0.22774E+02</wgt>
<wgt id='9000'>0.21399E+02</wgt>
<wgt id='9001'>0.21449E+02</wgt>
<wgt id='9002'>0.21519E+02</wgt>
<wgt id='9003'>0.21224E+02</wgt>
<wgt id='9004'>0.21368E+02</wgt>
<wgt id='9005'>0.21502E+02</wgt>
<wgt id='9006'>0.21323E+02</wgt>
<wgt id='9007'>0.21403E+02</wgt>
<wgt id='9008'>0.21412E+02</wgt>
<wgt id='9009'>0.21380E+02</wgt>
<wgt id='9010'>0.21362E+02</wgt>
<wgt id='9011'>0.21573E+02</wgt>
<wgt id='9012'>0.21197E+02</wgt>
<wgt id='9013'>0.21168E+02</wgt>
<wgt id='9014'>0.21238E+02</wgt>
<wgt id='9015'>0.21415E+02</wgt>
<wgt id='9016'>0.21449E+02</wgt>
<wgt id='9017'>0.21416E+02</wgt>
<wgt id='9018'>0.21409E+02</wgt>
<wgt id='9019'>0.21389E+02</wgt>
<wgt id='9020'>0.21354E+02</wgt>
<wgt id='9021'>0.21391E+02</wgt>
<wgt id='9022'>0.21445E+02</wgt>
<wgt id='9023'>0.21300E+02</wgt>
<wgt id='9024'>0.21366E+02</wgt>
<wgt id='9025'>0.21475E+02</wgt>
<wgt id='9026'>0.21403E+02</wgt>
<wgt id='9027'>0.21377E+02</wgt>
<wgt id='9028'>0.21415E+02</wgt>
<wgt id='9029'>0.21416E+02</wgt>
<wgt id='9030'>0.21390E+02</wgt>
<wgt id='9031'>0.21370E+02</wgt>
<wgt id='9032'>0.21395E+02</wgt>
<wgt id='9033'>0.21423E+02</wgt>
<wgt id='9034'>0.21425E+02</wgt>
<wgt id='9035'>0.21437E+02</wgt>
<wgt id='9036'>0.21402E+02</wgt>
<wgt id='9037'>0.21407E+02</wgt>
<wgt id='9038'>0.21397E+02</wgt>
<wgt id='9039'>0.21392E+02</wgt>
<wgt id='9040'>0.21389E+02</wgt>
<wgt id='9041'>0.21384E+02</wgt>
<wgt id='9042'>0.21418E+02</wgt>
<wgt id='9043'>0.21380E+02</wgt>
<wgt id='9044'>0.21417E+02</wgt>
<wgt id='9045'>0.21408E+02</wgt>
<wgt id='9046'>0.21371E+02</wgt>
<wgt id='9047'>0.21391E+02</wgt>
<wgt id='9048'>0.21408E+02</wgt>
<wgt id='9049'>0.21387E+02</wgt>
<wgt id='9050'>0.21402E+02</wgt>
<wgt id='9051'>0.21415E+02</wgt>
<wgt id='9052'>0.21416E+02</wgt>
<wgt id='9053'>0.21413E+02</wgt>
<wgt id='9054'>0.21384E+02</wgt>
<wgt id='9055'>0.21388E+02</wgt>
<wgt id='9056'>0.21404E+02</wgt>
<wgt id='9057'>0.21393E+02</wgt>
<wgt id='9058'>0.21393E+02</wgt>
<wgt id='9059'>0.21386E+02</wgt>
<wgt id='9060'>0.21396E+02</wgt>
<wgt id='9061'>0.21397E+02</wgt>
<wgt id='9062'>0.21407E+02</wgt>
<wgt id='9063'>0.21406E+02</wgt>
<wgt id='9064'>0.21407E+02</wgt>
<wgt id='9065'>0.21391E+02</wgt>
<wgt id='9066'>0.21390E+02</wgt>
<wgt id='9067'>0.21394E+02</wgt>
<wgt id='9068'>0.21410E+02</wgt>
<wgt id='9069'>0.21413E+02</wgt>
<wgt id='9070'>0.21400E+02</wgt>
<wgt id='9071'>0.21400E+02</wgt>
<wgt id='9072'>0.21405E+02</wgt>
<wgt id='9073'>0.21397E+02</wgt>
<wgt id='9074'>0.21409E+02</wgt>
<wgt id='9075'>0.21395E+02</wgt>
<wgt id='9076'>0.21395E+02</wgt>
<wgt id='9077'>0.21411E+02</wgt>
<wgt id='9078'>0.21409E+02</wgt>
<wgt id='9079'>0.21386E+02</wgt>
<wgt id='9080'>0.21414E+02</wgt>
<wgt id='9081'>0.21397E+02</wgt>
<wgt id='9082'>0.21398E+02</wgt>
<wgt id='9083'>0.21391E+02</wgt>
<wgt id='9084'>0.21383E+02</wgt>
<wgt id='9085'>0.21386E+02</wgt>
<wgt id='9086'>0.21409E+02</wgt>
<wgt id='9087'>0.21372E+02</wgt>
<wgt id='9088'>0.21391E+02</wgt>
<wgt id='9089'>0.21391E+02</wgt>
<wgt id='9090'>0.21405E+02</wgt>
<wgt id='9091'>0.21392E+02</wgt>
<wgt id='9092'>0.21399E+02</wgt>
<wgt id='9093'>0.21392E+02</wgt>
<wgt id='9094'>0.21393E+02</wgt>
<wgt id='9095'>0.21400E+02</wgt>
<wgt id='9096'>0.21394E+02</wgt>
<wgt id='9097'>0.21401E+02</wgt>
<wgt id='9098'>0.21399E+02</wgt>
<wgt id='9099'>0.21389E+02</wgt>
<wgt id='9100'>0.21401E+02</wgt>
<wgt id='9101'>0.21029E+02</wgt>
<wgt id='9102'>0.21731E+02</wgt>
<wgt id='10000'>0.22373E+02</wgt>
<wgt id='10001'>0.22470E+02</wgt>
<wgt id='10002'>0.22329E+02</wgt>
<wgt id='10003'>0.22354E+02</wgt>
<wgt id='10004'>0.22363E+02</wgt>
<wgt id='10005'>0.22876E+02</wgt>
<wgt id='10006'>0.22335E+02</wgt>
<wgt id='10007'>0.22367E+02</wgt>
<wgt id='10008'>0.22379E+02</wgt>
<wgt id='10009'>0.22315E+02</wgt>
<wgt id='10010'>0.22373E+02</wgt>
<wgt id='10011'>0.22330E+02</wgt>
<wgt id='10012'>0.22354E+02</wgt>
<wgt id='10013'>0.22380E+02</wgt>
<wgt id='10014'>0.22372E+02</wgt>
<wgt id='10015'>0.22379E+02</wgt>
<wgt id='10016'>0.22368E+02</wgt>
<wgt id='10017'>0.22305E+02</wgt>
<wgt id='10018'>0.22390E+02</wgt>
<wgt id='10019'>0.22355E+02</wgt>
<wgt id='10020'>0.22399E+02</wgt>
<wgt id='10021'>0.22364E+02</wgt>
<wgt id='10022'>0.22486E+02</wgt>
<wgt id='10023'>0.22384E+02</wgt>
<wgt id='10024'>0.22348E+02</wgt>
<wgt id='10025'>0.22368E+02</wgt>
<wgt id='10026'>0.22379E+02</wgt>
<wgt id='10027'>0.22370E+02</wgt>
<wgt id='10028'>0.22404E+02</wgt>
<wgt id='10029'>0.22397E+02</wgt>
<wgt id='10030'>0.22360E+02</wgt>
<wgt id='10031'>0.21928E+02</wgt>
<wgt id='10032'>0.22774E+02</wgt>
<wgt id='11000'>0.21397E+02</wgt>
<wgt id='11001'>0.21433E+02</wgt>
<wgt id='11002'>0.21483E+02</wgt>
<wgt id='11003'>0.21377E+02</wgt>
<wgt id='11004'>0.21510E+02</wgt>
<wgt id='11005'>0.21310E+02</wgt>
<wgt id='11006'>0.21391E+02</wgt>
<wgt id='11007'>0.21358E+02</wgt>
<wgt id='11008'>0.21381E+02</wgt>
<wgt id='11009'>0.21278E+02</wgt>
<wgt id='11010'>0.21437E+02</wgt>
<wgt id='11011'>0.21301E+02</wgt>
<wgt id='11012'>0.21421E+02</wgt>
<wgt id='11013'>0.21485E+02</wgt>
<wgt id='11014'>0.21341E+02</wgt>
<wgt id='11015'>0.21397E+02</wgt>
<wgt id='11016'>0.21408E+02</wgt>
<wgt id='11017'>0.21522E+02</wgt>
<wgt id='11018'>0.21398E+02</wgt>
<wgt id='11019'>0.21380E+02</wgt>
<wgt id='11020'>0.21424E+02</wgt>
<wgt id='11021'>0.21470E+02</wgt>
<wgt id='11022'>0.21785E+02</wgt>
<wgt id='11023'>0.21387E+02</wgt>
<wgt id='11024'>0.21419E+02</wgt>
<wgt id='11025'>0.21350E+02</wgt>
<wgt id='11026'>0.21393E+02</wgt>
<wgt id='11027'>0.21392E+02</wgt>
<wgt id='11028'>0.21402E+02</wgt>
<wgt id='11029'>0.21391E+02</wgt>
<wgt id='11030'>0.21403E+02</wgt>
<wgt id='11031'>0.21029E+02</wgt>
<wgt id='11032'>0.21731E+02</wgt>
<wgt id='12000'>0.23477E+02</wgt>
<wgt id='12001'>0.23449E+02</wgt>
<wgt id='12002'>0.23505E+02</wgt>
<wgt id='12003'>0.23520E+02</wgt>
<wgt id='12004'>0.23434E+02</wgt>
<wgt id='12005'>0.23499E+02</wgt>
<wgt id='12006'>0.23455E+02</wgt>
<wgt id='12007'>0.23545E+02</wgt>
<wgt id='12008'>0.23411E+02</wgt>
<wgt id='12009'>0.23501E+02</wgt>
<wgt id='12010'>0.23455E+02</wgt>
<wgt id='12011'>0.23462E+02</wgt>
<wgt id='12012'>0.23496E+02</wgt>
<wgt id='12013'>0.23436E+02</wgt>
<wgt id='12014'>0.23519E+02</wgt>
<wgt id='12015'>0.23451E+02</wgt>
<wgt id='12016'>0.23473E+02</wgt>
<wgt id='12017'>0.23506E+02</wgt>
<wgt id='12018'>0.23447E+02</wgt>
<wgt id='12019'>0.23455E+02</wgt>
<wgt id='12020'>0.23500E+02</wgt>
<wgt id='12021'>0.23599E+02</wgt>
<wgt id='12022'>0.23339E+02</wgt>
<wgt id='12023'>0.23445E+02</wgt>
<wgt id='12024'>0.23440E+02</wgt>
<wgt id='12025'>0.23541E+02</wgt>
<wgt id='12026'>0.23422E+02</wgt>
<wgt id='12027'>0.23410E+02</wgt>
<wgt id='12028'>0.23564E+02</wgt>
<wgt id='12050'>0.23477E+02</wgt>
<wgt id='12051'>0.23471E+02</wgt>
<wgt id='12052'>0.23485E+02</wgt>
<wgt id='12053'>0.23470E+02</wgt>
<wgt id='12054'>0.23482E+02</wgt>
<wgt id='12055'>0.23513E+02</wgt>
<wgt id='12056'>0.23306E+02</wgt>
<wgt id='12057'>0.23395E+02</wgt>
<wgt id='12058'>0.23552E+02</wgt>
<wgt id='12059'>0.23429E+02</wgt>
<wgt id='12060'>0.23528E+02</wgt>
<wgt id='12061'>0.23498E+02</wgt>
<wgt id='12062'>0.23499E+02</wgt>
<wgt id='12063'>0.23283E+02</wgt>
<wgt id='13000'>0.21311E+02</wgt>
<wgt id='13001'>0.21297E+02</wgt>
<wgt id='13002'>0.21325E+02</wgt>
<wgt id='13003'>0.21331E+02</wgt>
<wgt id='13004'>0.21290E+02</wgt>
<wgt id='13005'>0.21341E+02</wgt>
<wgt id='13006'>0.21281E+02</wgt>
<wgt id='13007'>0.21390E+02</wgt>
<wgt id='13008'>0.21234E+02</wgt>
<wgt id='13009'>0.21325E+02</wgt>
<wgt id='13010'>0.21299E+02</wgt>
<wgt id='13011'>0.21348E+02</wgt>
<wgt id='13012'>0.21275E+02</wgt>
<wgt id='13013'>0.21293E+02</wgt>
<wgt id='13014'>0.21329E+02</wgt>
<wgt id='13015'>0.21285E+02</wgt>
<wgt id='13016'>0.21315E+02</wgt>
<wgt id='13017'>0.21315E+02</wgt>
<wgt id='13018'>0.21306E+02</wgt>
<wgt id='13019'>0.21335E+02</wgt>
<wgt id='13020'>0.21290E+02</wgt>
<wgt id='13021'>0.21159E+02</wgt>
<wgt id='13022'>0.21446E+02</wgt>
<wgt id='13023'>0.21319E+02</wgt>
<wgt id='13024'>0.21289E+02</wgt>
<wgt id='13025'>0.21276E+02</wgt>
<wgt id='13026'>0.21296E+02</wgt>
<wgt id='13027'>0.21320E+02</wgt>
<wgt id='13028'>0.21324E+02</wgt>
<wgt id='13050'>0.21311E+02</wgt>
<wgt id='13051'>0.21321E+02</wgt>
<wgt id='13052'>0.21374E+02</wgt>
<wgt id='13053'>0.21319E+02</wgt>
<wgt id='13054'>0.21299E+02</wgt>
<wgt id='13055'>0.21244E+02</wgt>
<wgt id='13056'>0.21370E+02</wgt>
<wgt id='13057'>0.21248E+02</wgt>
<wgt id='13058'>0.21404E+02</wgt>
<wgt id='13059'>0.21282E+02</wgt>
<wgt id='13060'>0.21341E+02</wgt>
<wgt id='13061'>0.21286E+02</wgt>
<wgt id='13062'>0.21425E+02</wgt>
<wgt id='13063'>0.21243E+02</wgt>
<wgt id='14000'>0.22096E+02</wgt>
<wgt id='14001'>0.22092E+02</wgt>
<wgt id='14002'>0.22089E+02</wgt>
<wgt id='14003'>0.22086E+02</wgt>
<wgt id='14004'>0.22083E+02</wgt>
<wgt id='14005'>0.22079E+02</wgt>
<wgt id='14006'>0.22076E+02</wgt>
<wgt id='14007'>0.22073E+02</wgt>
<wgt id='14008'>0.22069E+02</wgt>
<wgt id='14009'>0.22066E+02</wgt>
<wgt id='14010'>0.22063E+02</wgt>
<wgt id='14011'>0.22059E+02</wgt>
<wgt id='14012'>0.22056E+02</wgt>
<wgt id='14013'>0.22053E+02</wgt>
<wgt id='14014'>0.22050E+02</wgt>
<wgt id='14015'>0.22046E+02</wgt>
<wgt id='14016'>0.22043E+02</wgt>
<wgt id='14017'>0.22040E+02</wgt>
<wgt id='14018'>0.22036E+02</wgt>
<wgt id='14019'>0.22033E+02</wgt>
<wgt id='14020'>0.22030E+02</wgt>
<wgt id='14021'>0.22027E+02</wgt>
<wgt id='14022'>0.22023E+02</wgt>
<wgt id='14023'>0.22020E+02</wgt>
<wgt id='14024'>0.22017E+02</wgt>
<wgt id='14025'>0.22013E+02</wgt>
<wgt id='14026'>0.22010E+02</wgt>
<wgt id='14027'>0.22007E+02</wgt>
<wgt id='14028'>0.22004E+02</wgt>
<wgt id='14029'>0.22000E+02</wgt>
<wgt id='14030'>0.21997E+02</wgt>
<wgt id='15000'>0.21138E+02</wgt>
<wgt id='15001'>0.21187E+02</wgt>
<wgt id='15002'>0.21257E+02</wgt>
<wgt id='15003'>0.20966E+02</wgt>
<wgt id='15004'>0.21108E+02</wgt>
<wgt id='15005'>0.21241E+02</wgt>
<wgt id='15006'>0.21063E+02</wgt>
<wgt id='15007'>0.21141E+02</wgt>
<wgt id='15008'>0.21151E+02</wgt>
<wgt id='15009'>0.21120E+02</wgt>
<wgt id='15010'>0.21101E+02</wgt>
<wgt id='15011'>0.21310E+02</wgt>
<wgt id='15012'>0.20939E+02</wgt>
<wgt id='15013'>0.20910E+02</wgt>
<wgt id='15014'>0.20979E+02</wgt>
<wgt id='15015'>0.21154E+02</wgt>
<wgt id='15016'>0.21187E+02</wgt>
<wgt id='15017'>0.21155E+02</wgt>
<wgt id='15018'>0.21148E+02</wgt>
<wgt id='15019'>0.21129E+02</wgt>
<wgt id='15020'>0.21094E+02</wgt>
<wgt id='15021'>0.21129E+02</wgt>
<wgt id='15022'>0.21184E+02</wgt>
<wgt id='15023'>0.21039E+02</wgt>
<wgt id='15024'>0.21105E+02</wgt>
<wgt id='15025'>0.21214E+02</wgt>
<wgt id='15026'>0.21142E+02</wgt>
<wgt id='15027'>0.21116E+02</wgt>
<wgt id='15028'>0.21154E+02</wgt>
<wgt id='15029'>0.21156E+02</wgt>
<wgt id='15030'>0.21129E+02</wgt>
<wgt id='15031'>0.21109E+02</wgt>
<wgt id='15032'>0.21135E+02</wgt>
<wgt id='15033'>0.21162E+02</wgt>
<wgt id='15034'>0.21163E+02</wgt>
<wgt id='15035'>0.21176E+02</wgt>
<wgt id='15036'>0.21141E+02</wgt>
<wgt id='15037'>0.21147E+02</wgt>
<wgt id='15038'>0.21136E+02</wgt>
<wgt id='15039'>0.21131E+02</wgt>
<wgt id='15040'>0.21128E+02</wgt>
<wgt id='15041'>0.21123E+02</wgt>
<wgt id='15042'>0.21157E+02</wgt>
<wgt id='15043'>0.21119E+02</wgt>
<wgt id='15044'>0.21156E+02</wgt>
<wgt id='15045'>0.21147E+02</wgt>
<wgt id='15046'>0.21110E+02</wgt>
<wgt id='15047'>0.21131E+02</wgt>
<wgt id='15048'>0.21147E+02</wgt>
<wgt id='15049'>0.21127E+02</wgt>
<wgt id='15050'>0.21141E+02</wgt>
<wgt id='15051'>0.21154E+02</wgt>
<wgt id='15052'>0.21155E+02</wgt>
<wgt id='15053'>0.21151E+02</wgt>
<wgt id='15054'>0.21123E+02</wgt>
<wgt id='15055'>0.21127E+02</wgt>
<wgt id='15056'>0.21143E+02</wgt>
<wgt id='15057'>0.21132E+02</wgt>
<wgt id='15058'>0.21132E+02</wgt>
<wgt id='15059'>0.21125E+02</wgt>
<wgt id='15060'>0.21135E+02</wgt>
<wgt id='15061'>0.21136E+02</wgt>
<wgt id='15062'>0.21146E+02</wgt>
<wgt id='15063'>0.21145E+02</wgt>
<wgt id='15064'>0.21146E+02</wgt>
<wgt id='15065'>0.21130E+02</wgt>
<wgt id='15066'>0.21129E+02</wgt>
<wgt id='15067'>0.21133E+02</wgt>
<wgt id='15068'>0.21149E+02</wgt>
<wgt id='15069'>0.21152E+02</wgt>
<wgt id='15070'>0.21139E+02</wgt>
<wgt id='15071'>0.21140E+02</wgt>
<wgt id='15072'>0.21144E+02</wgt>
<wgt id='15073'>0.21136E+02</wgt>
<wgt id='15074'>0.21148E+02</wgt>
<wgt id='15075'>0.21134E+02</wgt>
<wgt id='15076'>0.21134E+02</wgt>
<wgt id='15077'>0.21150E+02</wgt>
<wgt id='15078'>0.21148E+02</wgt>
<wgt id='15079'>0.21125E+02</wgt>
<wgt id='15080'>0.21153E+02</wgt>
<wgt id='15081'>0.21137E+02</wgt>
<wgt id='15082'>0.21137E+02</wgt>
<wgt id='15083'>0.21130E+02</wgt>
<wgt id='15084'>0.21123E+02</wgt>
<wgt id='15085'>0.21125E+02</wgt>
<wgt id='15086'>0.21148E+02</wgt>
<wgt id='15087'>0.21111E+02</wgt>
<wgt id='15088'>0.21130E+02</wgt>
<wgt id='15089'>0.21130E+02</wgt>
<wgt id='15090'>0.21144E+02</wgt>
<wgt id='15091'>0.21131E+02</wgt>
<wgt id='15092'>0.21138E+02</wgt>
<wgt id='15093'>0.21131E+02</wgt>
<wgt id='15094'>0.21132E+02</wgt>
<wgt id='15095'>0.21139E+02</wgt>
<wgt id='15096'>0.21133E+02</wgt>
<wgt id='15097'>0.21140E+02</wgt>
<wgt id='15098'>0.21138E+02</wgt>
<wgt id='15099'>0.21129E+02</wgt>
<wgt id='15100'>0.21140E+02</wgt>
<wgt id='15101'>0.21138E+02</wgt>
<wgt id='15102'>0.21136E+02</wgt>
<wgt id='15103'>0.21138E+02</wgt>
<wgt id='15104'>0.21138E+02</wgt>
<wgt id='15105'>0.21139E+02</wgt>
<wgt id='15106'>0.21138E+02</wgt>
<wgt id='15107'>0.21137E+02</wgt>
<wgt id='1500'>0.22322E+02</wgt>
<wgt id='1501'>0.20551E+02</wgt>
<wgt id='1502'>0.22560E+02</wgt>
<wgt id='1503'>0.22375E+02</wgt>
<wgt id='1504'>0.22212E+02</wgt>
<wgt id='1505'>0.19868E+02</wgt>
<wgt id='1506'>0.22365E+02</wgt>
<wgt id='1507'>0.22454E+02</wgt>
<wgt id='1508'>0.22302E+02</wgt>
<wgt id='1509'>0.22479E+02</wgt>
<wgt id='1510'>0.21888E+02</wgt>
<wgt id='1511'>0.22236E+02</wgt>
<wgt id='1512'>0.22752E+02</wgt>
<wgt id='1513'>0.22836E+02</wgt>
<wgt id='1514'>0.21990E+02</wgt>
<wgt id='1515'>0.22402E+02</wgt>
<wgt id='1516'>0.22561E+02</wgt>
<wgt id='1517'>0.22631E+02</wgt>
<wgt id='1518'>0.22254E+02</wgt>
<wgt id='1519'>0.22273E+02</wgt>
<wgt id='1520'>0.22419E+02</wgt>
<wgt id='1521'>0.22290E+02</wgt>
<wgt id='1522'>0.21912E+02</wgt>
<wgt id='1523'>0.23779E+02</wgt>
<wgt id='1524'>0.22007E+02</wgt>
<wgt id='1525'>0.22597E+02</wgt>
<wgt id='1526'>0.21860E+02</wgt>
<wgt id='1527'>0.22616E+02</wgt>
<wgt id='1528'>0.22374E+02</wgt>
<wgt id='1529'>0.22139E+02</wgt>
<wgt id='1530'>0.22507E+02</wgt>
<wgt id='1531'>0.22086E+02</wgt>
<wgt id='1532'>0.21833E+02</wgt>
<wgt id='1533'>0.22734E+02</wgt>
<wgt id='1534'>0.22095E+02</wgt>
<wgt id='1535'>0.23105E+02</wgt>
<wgt id='1536'>0.22886E+02</wgt>
<wgt id='1537'>0.22564E+02</wgt>
<wgt id='1538'>0.21864E+02</wgt>
<wgt id='1539'>0.21518E+02</wgt>
<wgt id='1540'>0.22523E+02</wgt>
<wgt id='1541'>0.21962E+02</wgt>
<wgt id='1542'>0.22741E+02</wgt>
<wgt id='1543'>0.22596E+02</wgt>
<wgt id='1544'>0.22228E+02</wgt>
<wgt id='1545'>0.22642E+02</wgt>
<wgt id='1546'>0.22047E+02</wgt>
<wgt id='1547'>0.22297E+02</wgt>
<wgt id='1548'>0.22014E+02</wgt>
<wgt id='1549'>0.22601E+02</wgt>
<wgt id='1550'>0.22470E+02</wgt>
<wgt id='1551'>0.22459E+02</wgt>
<wgt id='1552'>0.22478E+02</wgt>
<wgt id='1553'>0.22365E+02</wgt>
<wgt id='1554'>0.22653E+02</wgt>
<wgt id='1555'>0.22459E+02</wgt>
<wgt id='1556'>0.21931E+02</wgt>
<wgt id='1557'>0.23045E+02</wgt>
<wgt id='1558'>0.22311E+02</wgt>
<wgt id='1559'>0.22439E+02</wgt>
<wgt id='1560'>0.22189E+02</wgt>
<wgt id='1561'>0.22329E+02</wgt>
<wgt id='1562'>0.22277E+02</wgt>
<wgt id='1563'>0.22799E+02</wgt>
<wgt id='1564'>0.22384E+02</wgt>
<wgt id='1565'>0.22945E+02</wgt>
<wgt id='1566'>0.22172E+02</wgt>
<wgt id='1567'>0.23209E+02</wgt>
<wgt id='1568'>0.22017E+02</wgt>
<wgt id='1569'>0.22196E+02</wgt>
<wgt id='1570'>0.22720E+02</wgt>
<wgt id='1571'>0.22688E+02</wgt>
<wgt id='1572'>0.22115E+02</wgt>
<wgt id='1573'>0.21091E+02</wgt>
<wgt id='1574'>0.22671E+02</wgt>
<wgt id='1575'>0.22190E+02</wgt>
<wgt id='1576'>0.21783E+02</wgt>
<wgt id='1577'>0.22301E+02</wgt>
<wgt id='1578'>0.23259E+02</wgt>
<wgt id='1579'>0.22254E+02</wgt>
<wgt id='1580'>0.22360E+02</wgt>
<wgt id='1581'>0.22265E+02</wgt>
<wgt id='1582'>0.22150E+02</wgt>
<wgt id='1583'>0.22411E+02</wgt>
<wgt id='1584'>0.22314E+02</wgt>
<wgt id='1585'>0.21916E+02</wgt>
<wgt id='1586'>0.22416E+02</wgt>
<wgt id='1587'>0.22547E+02</wgt>
<wgt id='1588'>0.22505E+02</wgt>
<wgt id='1589'>0.22821E+02</wgt>
<wgt id='1590'>0.22307E+02</wgt>
<wgt id='1591'>0.21757E+02</wgt>
<wgt id='1592'>0.22758E+02</wgt>
<wgt id='1593'>0.22162E+02</wgt>
<wgt id='1594'>0.22712E+02</wgt>
<wgt id='1595'>0.22231E+02</wgt>
<wgt id='1596'>0.22581E+02</wgt>
<wgt id='1597'>0.22689E+02</wgt>
<wgt id='1598'>0.22918E+02</wgt>
<wgt id='1599'>0.23059E+02</wgt>
<wgt id='1600'>0.22432E+02</wgt>
<wgt id='1601'>0.21959E+02</wgt>
<wgt id='1602'>0.22586E+02</wgt>
<wgt id='1700'>0.21494E+02</wgt>
<wgt id='1800'>0.25350E+02</wgt>
<wgt id='1850'>0.30220E+02</wgt>
<wgt id='1900'>0.25121E+02</wgt>
<wgt id='1950'>0.29441E+02</wgt>
</rwgt>
</event>
<event>
      4   9999  2.16956E+01  3.57559E+01 -1.00000E+00  1.45650E-01
      21    -1     0     0   512   501  0.000000000E+00  0.000000000E+00  7.737481378E+01  7.737481378E+01  0.000000000E+00  0.00000E+00  9.000E+00
      21    -1     0     0   501   502  0.000000000E+00  0.000000000E+00 -3.239855228E+02  3.239855228E+02  0.000000000E+00  0.00000E+00  9.000E+00
      25     1     1     2     0     0  3.387317305E+01 -1.144967265E+01 -3.057533824E+02  3.322492472E+02  1.250037783E+02  0.00000E+00  9.000E+00
      21     1     1     2   512   502 -3.387317305E+01  1.144967265E+01  5.914267338E+01  6.911108935E+01  1.348699152E-06  0.00000E+00  9.000E+00
#rwgt            1           1   16.584383253127623                1         948           0
<rwgt>
<wgt id='1001'>0.21696E+02</wgt>
<wgt id='1002'>0.24247E+02</wgt>
<wgt id='1003'>0.18998E+02</wgt>
<wgt id='1004'>0.17945E+02</wgt>
<wgt id='1005'>0.19926E+02</wgt>
<wgt id='1006'>0.15826E+02</wgt>
<wgt id='1007'>0.26797E+02</wgt>
<wgt id='1008'>0.30183E+02</wgt>
<wgt id='1009'>0.23262E+02</wgt>
<wgt id='2000'>0.21696E+02</wgt>
<wgt id='2001'>0.21661E+02</wgt>
<wgt id='2002'>0.21735E+02</wgt>
<wgt id='2003'>0.21713E+02</wgt>
<wgt id='2004'>0.21707E+02</wgt>
<wgt id='2005'>0.21691E+02</wgt>
<wgt id='2006'>0.21678E+02</wgt>
<wgt id='2007'>0.21685E+02</wgt>
<wgt id='2008'>0.21722E+02</wgt>
<wgt id='2009'>0.21676E+02</wgt>
<wgt id='2010'>0.21668E+02</wgt>
<wgt id='2011'>0.21735E+02</wgt>
<wgt id='2012'>0.21738E+02</wgt>
<wgt id='2013'>0.21723E+02</wgt>
<wgt id='2014'>0.21731E+02</wgt>
<wgt id='2015'>0.21726E+02</wgt>
<wgt id='2016'>0.21713E+02</wgt>
<wgt id='2017'>0.21693E+02</wgt>
<wgt id='2018'>0.21722E+02</wgt>
<wgt id='2019'>0.21697E+02</wgt>
<wgt id='2020'>0.21764E+02</wgt>
<wgt id='2021'>0.21665E+02</wgt>
<wgt id='2022'>0.21759E+02</wgt>
<wgt id='2023'>0.21738E+02</wgt>
<wgt id='2024'>0.21687E+02</wgt>
<wgt id='2025'>0.21780E+02</wgt>
<wgt id='2026'>0.21758E+02</wgt>
<wgt id='2027'>0.21670E+02</wgt>
<wgt id='2028'>0.21649E+02</wgt>
<wgt id='2029'>0.21724E+02</wgt>
<wgt id='2030'>0.21698E+02</wgt>
<wgt id='2031'>0.21724E+02</wgt>
<wgt id='2032'>0.21674E+02</wgt>
<wgt id='2033'>0.21696E+02</wgt>
<wgt id='2034'>0.21723E+02</wgt>
<wgt id='2035'>0.21691E+02</wgt>
<wgt id='2036'>0.21712E+02</wgt>
<wgt id='2037'>0.21708E+02</wgt>
<wgt id='2038'>0.21699E+02</wgt>
<wgt id='2039'>0.21688E+02</wgt>
<wgt id='2040'>0.21711E+02</wgt>
<wgt id='2041'>0.21700E+02</wgt>
<wgt id='2042'>0.21674E+02</wgt>
<wgt id='2043'>0.21710E+02</wgt>
<wgt id='2044'>0.21710E+02</wgt>
<wgt id='2045'>0.21694E+02</wgt>
<wgt id='2046'>0.21703E+02</wgt>
<wgt id='2047'>0.21711E+02</wgt>
<wgt id='2048'>0.21695E+02</wgt>
<wgt id='2049'>0.21697E+02</wgt>
<wgt id='2050'>0.21700E+02</wgt>
<wgt id='2051'>0.21708E+02</wgt>
<wgt id='2052'>0.21690E+02</wgt>
<wgt id='2053'>0.21692E+02</wgt>
<wgt id='2054'>0.21694E+02</wgt>
<wgt id='2055'>0.21698E+02</wgt>
<wgt id='2056'>0.21697E+02</wgt>
<wgt id='2057'>0.21697E+02</wgt>
<wgt id='2058'>0.21703E+02</wgt>
<wgt id='2059'>0.21695E+02</wgt>
<wgt id='2060'>0.21703E+02</wgt>
<wgt id='2061'>0.21688E+02</wgt>
<wgt id='2062'>0.21690E+02</wgt>
<wgt id='2063'>0.21699E+02</wgt>
<wgt id='2064'>0.21685E+02</wgt>
<wgt id='2065'>0.21693E+02</wgt>
<wgt id='2066'>0.21686E+02</wgt>
<wgt id='2067'>0.21696E+02</wgt>
<wgt id='2068'>0.21700E+02</wgt>
<wgt id='2069'>0.21700E+02</wgt>
<wgt id='2070'>0.21698E+02</wgt>
<wgt id='2071'>0.21691E+02</wgt>
<wgt id='2072'>0.21698E+02</wgt>
<wgt id='2073'>0.21696E+02</wgt>
<wgt id='2074'>0.21699E+02</wgt>
<wgt id='2075'>0.21692E+02</wgt>
<wgt id='2076'>0.21699E+02</wgt>
<wgt id='2077'>0.21690E+02</wgt>
<wgt id='2078'>0.21696E+02</wgt>
<wgt id='2079'>0.21699E+02</wgt>
<wgt id='2080'>0.21695E+02</wgt>
<wgt id='2081'>0.21699E+02</wgt>
<wgt id='2082'>0.21698E+02</wgt>
<wgt id='2083'>0.21692E+02</wgt>
<wgt id='2084'>0.21695E+02</wgt>
<wgt id='2085'>0.21692E+02</wgt>
<wgt id='2086'>0.21696E+02</wgt>
<wgt id='2087'>0.21695E+02</wgt>
<wgt id='2088'>0.21696E+02</wgt>
<wgt id='2089'>0.21698E+02</wgt>
<wgt id='2090'>0.21697E+02</wgt>
<wgt id='2091'>0.21693E+02</wgt>
<wgt id='2092'>0.21694E+02</wgt>
<wgt id='2093'>0.21696E+02</wgt>
<wgt id='2094'>0.21693E+02</wgt>
<wgt id='2095'>0.21695E+02</wgt>
<wgt id='2096'>0.21695E+02</wgt>
<wgt id='2097'>0.21698E+02</wgt>
<wgt id='2098'>0.21693E+02</wgt>
<wgt id='2099'>0.21698E+02</wgt>
<wgt id='2100'>0.21695E+02</wgt>
<wgt id='2101'>0.21059E+02</wgt>
<wgt id='2102'>0.22303E+02</wgt>
<wgt id='2104'>0.18732E+02</wgt>
<wgt id='2105'>0.19278E+02</wgt>
<wgt id='2106'>0.19873E+02</wgt>
<wgt id='2107'>0.20478E+02</wgt>
<wgt id='2108'>0.21397E+02</wgt>
<wgt id='2109'>0.22026E+02</wgt>
<wgt id='2110'>0.22865E+02</wgt>
<wgt id='2111'>0.23479E+02</wgt>
<wgt id='3000'>0.22748E+02</wgt>
<wgt id='3001'>0.22787E+02</wgt>
<wgt id='3002'>0.22705E+02</wgt>
<wgt id='3003'>0.22770E+02</wgt>
<wgt id='3004'>0.22771E+02</wgt>
<wgt id='3005'>0.22769E+02</wgt>
<wgt id='3006'>0.22750E+02</wgt>
<wgt id='3007'>0.22729E+02</wgt>
<wgt id='3008'>0.22727E+02</wgt>
<wgt id='3009'>0.22676E+02</wgt>
<wgt id='3010'>0.22712E+02</wgt>
<wgt id='3011'>0.22774E+02</wgt>
<wgt id='3012'>0.22808E+02</wgt>
<wgt id='3013'>0.22705E+02</wgt>
<wgt id='3014'>0.22764E+02</wgt>
<wgt id='3015'>0.22744E+02</wgt>
<wgt id='3016'>0.22759E+02</wgt>
<wgt id='3017'>0.22768E+02</wgt>
<wgt id='3018'>0.22790E+02</wgt>
<wgt id='3019'>0.22715E+02</wgt>
<wgt id='3020'>0.22693E+02</wgt>
<wgt id='3021'>0.22678E+02</wgt>
<wgt id='3022'>0.22743E+02</wgt>
<wgt id='3023'>0.22700E+02</wgt>
<wgt id='3024'>0.22680E+02</wgt>
<wgt id='3025'>0.22750E+02</wgt>
<wgt id='3026'>0.22795E+02</wgt>
<wgt id='3027'>0.22754E+02</wgt>
<wgt id='3028'>0.22670E+02</wgt>
<wgt id='3029'>0.22721E+02</wgt>
<wgt id='3030'>0.22782E+02</wgt>
<wgt id='3031'>0.22765E+02</wgt>
<wgt id='3032'>0.22777E+02</wgt>
<wgt id='3033'>0.22782E+02</wgt>
<wgt id='3034'>0.22763E+02</wgt>
<wgt id='3035'>0.22776E+02</wgt>
<wgt id='3036'>0.22755E+02</wgt>
<wgt id='3037'>0.22750E+02</wgt>
<wgt id='3038'>0.22751E+02</wgt>
<wgt id='3039'>0.22725E+02</wgt>
<wgt id='3040'>0.22755E+02</wgt>
<wgt id='3041'>0.22762E+02</wgt>
<wgt id='3042'>0.22727E+02</wgt>
<wgt id='3043'>0.22731E+02</wgt>
<wgt id='3044'>0.22747E+02</wgt>
<wgt id='3045'>0.22762E+02</wgt>
<wgt id='3046'>0.22759E+02</wgt>
<wgt id='3047'>0.22743E+02</wgt>
<wgt id='3048'>0.22763E+02</wgt>
<wgt id='3049'>0.22745E+02</wgt>
<wgt id='3050'>0.22751E+02</wgt>
<wgt id='3051'>0.22769E+02</wgt>
<wgt id='3052'>0.22743E+02</wgt>
<wgt id='3053'>0.22741E+02</wgt>
<wgt id='3054'>0.22743E+02</wgt>
<wgt id='3055'>0.22744E+02</wgt>
<wgt id='3056'>0.22750E+02</wgt>
<wgt id='3057'>0.22736E+02</wgt>
<wgt id='3058'>0.22742E+02</wgt>
<wgt id='3059'>0.22745E+02</wgt>
<wgt id='3060'>0.22749E+02</wgt>
<wgt id='3061'>0.22749E+02</wgt>
<wgt id='3062'>0.22748E+02</wgt>
<wgt id='3063'>0.22754E+02</wgt>
<wgt id='3064'>0.22745E+02</wgt>
<wgt id='3065'>0.22752E+02</wgt>
<wgt id='3066'>0.22749E+02</wgt>
<wgt id='3067'>0.22745E+02</wgt>
<wgt id='3068'>0.22746E+02</wgt>
<wgt id='3069'>0.22741E+02</wgt>
<wgt id='3070'>0.22745E+02</wgt>
<wgt id='3071'>0.22749E+02</wgt>
<wgt id='3072'>0.22752E+02</wgt>
<wgt id='3073'>0.22748E+02</wgt>
<wgt id='3074'>0.22753E+02</wgt>
<wgt id='3075'>0.22751E+02</wgt>
<wgt id='3076'>0.22748E+02</wgt>
<wgt id='3077'>0.22747E+02</wgt>
<wgt id='3078'>0.22751E+02</wgt>
<wgt id='3079'>0.22745E+02</wgt>
<wgt id='3080'>0.22744E+02</wgt>
<wgt id='3081'>0.22746E+02</wgt>
<wgt id='3082'>0.22745E+02</wgt>
<wgt id='3083'>0.22750E+02</wgt>
<wgt id='3084'>0.22747E+02</wgt>
<wgt id='3085'>0.22752E+02</wgt>
<wgt id='3086'>0.22752E+02</wgt>
<wgt id='3087'>0.22748E+02</wgt>
<wgt id='3088'>0.22746E+02</wgt>
<wgt id='3089'>0.22749E+02</wgt>
<wgt id='3090'>0.22750E+02</wgt>
<wgt id='3091'>0.22746E+02</wgt>
<wgt id='3092'>0.22745E+02</wgt>
<wgt id='3093'>0.22749E+02</wgt>
<wgt id='3094'>0.22751E+02</wgt>
<wgt id='3095'>0.22748E+02</wgt>
<wgt id='3096'>0.22743E+02</wgt>
<wgt id='3097'>0.22745E+02</wgt>
<wgt id='3098'>0.22743E+02</wgt>
<wgt id='3099'>0.22748E+02</wgt>
<wgt id='3100'>0.22749E+02</wgt>
<wgt id='3101'>0.22067E+02</wgt>
<wgt id='3102'>0.23478E+02</wgt>
<wgt id='5000'>0.21024E+02</wgt>
<wgt id='5001'>0.20986E+02</wgt>
<wgt id='5002'>0.20980E+02</wgt>
<wgt id='5003'>0.20969E+02</wgt>
<wgt id='5004'>0.21002E+02</wgt>
<wgt id='5005'>0.20797E+02</wgt>
<wgt id='5006'>0.21000E+02</wgt>
<wgt id='5007'>0.20978E+02</wgt>
<wgt id='5008'>0.20952E+02</wgt>
<wgt id='5009'>0.21135E+02</wgt>
<wgt id='5010'>0.20954E+02</wgt>
<wgt id='5011'>0.21025E+02</wgt>
<wgt id='5012'>0.20987E+02</wgt>
<wgt id='5013'>0.20765E+02</wgt>
<wgt id='5014'>0.21098E+02</wgt>
<wgt id='5015'>0.21130E+02</wgt>
<wgt id='5016'>0.20687E+02</wgt>
<wgt id='5017'>0.20987E+02</wgt>
<wgt id='5018'>0.21066E+02</wgt>
<wgt id='5019'>0.20987E+02</wgt>
<wgt id='5020'>0.21064E+02</wgt>
<wgt id='5021'>0.21069E+02</wgt>
<wgt id='5022'>0.20995E+02</wgt>
<wgt id='5023'>0.20939E+02</wgt>
<wgt id='5024'>0.21113E+02</wgt>
<wgt id='5025'>0.21017E+02</wgt>
<wgt id='5026'>0.21030E+02</wgt>
<wgt id='5027'>0.21202E+02</wgt>
<wgt id='5028'>0.20723E+02</wgt>
<wgt id='5029'>0.20701E+02</wgt>
<wgt id='5030'>0.21218E+02</wgt>
<wgt id='5031'>0.20834E+02</wgt>
<wgt id='5032'>0.21298E+02</wgt>
<wgt id='5033'>0.20916E+02</wgt>
<wgt id='5034'>0.21115E+02</wgt>
<wgt id='5035'>0.20810E+02</wgt>
<wgt id='5036'>0.21202E+02</wgt>
<wgt id='5037'>0.20880E+02</wgt>
<wgt id='5038'>0.21180E+02</wgt>
<wgt id='5039'>0.21373E+02</wgt>
<wgt id='5040'>0.20847E+02</wgt>
<wgt id='5041'>0.20916E+02</wgt>
<wgt id='5042'>0.21022E+02</wgt>
<wgt id='5043'>0.21146E+02</wgt>
<wgt id='5044'>0.20639E+02</wgt>
<wgt id='5045'>0.21380E+02</wgt>
<wgt id='5046'>0.20898E+02</wgt>
<wgt id='5047'>0.21064E+02</wgt>
<wgt id='5048'>0.21156E+02</wgt>
<wgt id='5049'>0.21030E+02</wgt>
<wgt id='5050'>0.21064E+02</wgt>
<wgt id='5051'>0.21058E+02</wgt>
<wgt id='5052'>0.21020E+02</wgt>
<wgt id='5053'>0.20685E+02</wgt>
<wgt id='5054'>0.21022E+02</wgt>
<wgt id='5055'>0.20896E+02</wgt>
<wgt id='5056'>0.21213E+02</wgt>
<wgt id='5060'>0.20356E+02</wgt>
<wgt id='5070'>0.21670E+02</wgt>
<wgt id='4000'>0.22112E+02</wgt>
<wgt id='4001'>0.22124E+02</wgt>
<wgt id='4002'>0.22159E+02</wgt>
<wgt id='4003'>0.22202E+02</wgt>
<wgt id='4004'>0.22046E+02</wgt>
<wgt id='4005'>0.22171E+02</wgt>
<wgt id='4006'>0.22070E+02</wgt>
<wgt id='4007'>0.22215E+02</wgt>
<wgt id='4008'>0.22084E+02</wgt>
<wgt id='4009'>0.21815E+02</wgt>
<wgt id='4010'>0.22258E+02</wgt>
<wgt id='4011'>0.22387E+02</wgt>
<wgt id='4012'>0.21946E+02</wgt>
<wgt id='4013'>0.21495E+02</wgt>
<wgt id='4014'>0.22460E+02</wgt>
<wgt id='4015'>0.22363E+02</wgt>
<wgt id='4016'>0.21949E+02</wgt>
<wgt id='4017'>0.21854E+02</wgt>
<wgt id='4018'>0.22417E+02</wgt>
<wgt id='4019'>0.22335E+02</wgt>
<wgt id='4020'>0.21861E+02</wgt>
<wgt id='4021'>0.22145E+02</wgt>
<wgt id='4022'>0.22033E+02</wgt>
<wgt id='4023'>0.22045E+02</wgt>
<wgt id='4024'>0.22167E+02</wgt>
<wgt id='4025'>0.21987E+02</wgt>
<wgt id='4026'>0.22222E+02</wgt>
<wgt id='4027'>0.22064E+02</wgt>
<wgt id='4028'>0.22174E+02</wgt>
<wgt id='4029'>0.21992E+02</wgt>
<wgt id='4030'>0.22153E+02</wgt>
<wgt id='4031'>0.22147E+02</wgt>
<wgt id='4032'>0.22065E+02</wgt>
<wgt id='4033'>0.22075E+02</wgt>
<wgt id='4034'>0.22192E+02</wgt>
<wgt id='4035'>0.22293E+02</wgt>
<wgt id='4036'>0.21939E+02</wgt>
<wgt id='4037'>0.22214E+02</wgt>
<wgt id='4038'>0.21926E+02</wgt>
<wgt id='4039'>0.22077E+02</wgt>
<wgt id='4040'>0.22111E+02</wgt>
<wgt id='4041'>0.22219E+02</wgt>
<wgt id='4042'>0.22018E+02</wgt>
<wgt id='4043'>0.22182E+02</wgt>
<wgt id='4044'>0.22076E+02</wgt>
<wgt id='4045'>0.21853E+02</wgt>
<wgt id='4046'>0.22100E+02</wgt>
<wgt id='4047'>0.22002E+02</wgt>
<wgt id='4048'>0.22042E+02</wgt>
<wgt id='4049'>0.21961E+02</wgt>
<wgt id='4050'>0.21970E+02</wgt>
<wgt id='4051'>0.22072E+02</wgt>
<wgt id='4052'>0.22086E+02</wgt>
<wgt id='4053'>0.21495E+02</wgt>
<wgt id='4054'>0.22143E+02</wgt>
<wgt id='4055'>0.21987E+02</wgt>
<wgt id='4056'>0.22290E+02</wgt>
<wgt id='4060'>0.21358E+02</wgt>
<wgt id='4070'>0.22852E+02</wgt>
<wgt id='4080'>0.22665E+02</wgt>
<wgt id='6000'>0.22453E+02</wgt>
<wgt id='6001'>0.22476E+02</wgt>
<wgt id='6002'>0.22428E+02</wgt>
<wgt id='6003'>0.22464E+02</wgt>
<wgt id='6004'>0.22445E+02</wgt>
<wgt id='6005'>0.22494E+02</wgt>
<wgt id='6006'>0.22414E+02</wgt>
<wgt id='6007'>0.22373E+02</wgt>
<wgt id='6008'>0.22541E+02</wgt>
<wgt id='6009'>0.22537E+02</wgt>
<wgt id='6010'>0.22370E+02</wgt>
<wgt id='6011'>0.22502E+02</wgt>
<wgt id='6012'>0.22347E+02</wgt>
<wgt id='6013'>0.22428E+02</wgt>
<wgt id='6014'>0.22498E+02</wgt>
<wgt id='6015'>0.22390E+02</wgt>
<wgt id='6016'>0.22488E+02</wgt>
<wgt id='6017'>0.22323E+02</wgt>
<wgt id='6018'>0.22607E+02</wgt>
<wgt id='6019'>0.22466E+02</wgt>
<wgt id='6020'>0.22440E+02</wgt>
<wgt id='6021'>0.22406E+02</wgt>
<wgt id='6022'>0.22516E+02</wgt>
<wgt id='6023'>0.22300E+02</wgt>
<wgt id='6024'>0.22561E+02</wgt>
<wgt id='6025'>0.22367E+02</wgt>
<wgt id='6026'>0.22473E+02</wgt>
<wgt id='6027'>0.22514E+02</wgt>
<wgt id='6028'>0.22452E+02</wgt>
<wgt id='6029'>0.22526E+02</wgt>
<wgt id='6030'>0.22366E+02</wgt>
<wgt id='6031'>0.22429E+02</wgt>
<wgt id='6032'>0.22469E+02</wgt>
<wgt id='6033'>0.22503E+02</wgt>
<wgt id='6034'>0.22400E+02</wgt>
<wgt id='6035'>0.22456E+02</wgt>
<wgt id='6036'>0.22484E+02</wgt>
<wgt id='6037'>0.22491E+02</wgt>
<wgt id='6038'>0.22452E+02</wgt>
<wgt id='6039'>0.22420E+02</wgt>
<wgt id='6040'>0.22488E+02</wgt>
<wgt id='6041'>0.22404E+02</wgt>
<wgt id='6042'>0.22512E+02</wgt>
<wgt id='6043'>0.22739E+02</wgt>
<wgt id='6044'>0.22337E+02</wgt>
<wgt id='6045'>0.22436E+02</wgt>
<wgt id='6046'>0.22499E+02</wgt>
<wgt id='6047'>0.22553E+02</wgt>
<wgt id='6048'>0.22227E+02</wgt>
<wgt id='6049'>0.22500E+02</wgt>
<wgt id='6050'>0.22421E+02</wgt>
<wgt id='7000'>0.21103E+02</wgt>
<wgt id='7001'>0.21113E+02</wgt>
<wgt id='7002'>0.21090E+02</wgt>
<wgt id='7003'>0.21162E+02</wgt>
<wgt id='7004'>0.21045E+02</wgt>
<wgt id='7005'>0.21140E+02</wgt>
<wgt id='7006'>0.21088E+02</wgt>
<wgt id='7007'>0.21024E+02</wgt>
<wgt id='7008'>0.21182E+02</wgt>
<wgt id='7009'>0.21144E+02</wgt>
<wgt id='7010'>0.21063E+02</wgt>
<wgt id='7011'>0.20898E+02</wgt>
<wgt id='7012'>0.21192E+02</wgt>
<wgt id='7013'>0.21102E+02</wgt>
<wgt id='7014'>0.21104E+02</wgt>
<wgt id='7015'>0.21042E+02</wgt>
<wgt id='7016'>0.21169E+02</wgt>
<wgt id='7017'>0.20994E+02</wgt>
<wgt id='7018'>0.21161E+02</wgt>
<wgt id='7019'>0.21082E+02</wgt>
<wgt id='7020'>0.21133E+02</wgt>
<wgt id='7021'>0.21097E+02</wgt>
<wgt id='7022'>0.21106E+02</wgt>
<wgt id='7023'>0.21253E+02</wgt>
<wgt id='7024'>0.20947E+02</wgt>
<wgt id='7025'>0.21170E+02</wgt>
<wgt id='7026'>0.20940E+02</wgt>
<wgt id='7027'>0.21180E+02</wgt>
<wgt id='7028'>0.21078E+02</wgt>
<wgt id='7029'>0.21056E+02</wgt>
<wgt id='7030'>0.21212E+02</wgt>
<wgt id='7031'>0.21085E+02</wgt>
<wgt id='7032'>0.21145E+02</wgt>
<wgt id='7033'>0.21093E+02</wgt>
<wgt id='7034'>0.21137E+02</wgt>
<wgt id='7035'>0.21114E+02</wgt>
<wgt id='7036'>0.21109E+02</wgt>
<wgt id='7037'>0.21109E+02</wgt>
<wgt id='7038'>0.21114E+02</wgt>
<wgt id='7039'>0.21067E+02</wgt>
<wgt id='7040'>0.21129E+02</wgt>
<wgt id='7041'>0.21071E+02</wgt>
<wgt id='7042'>0.21136E+02</wgt>
<wgt id='7043'>0.21120E+02</wgt>
<wgt id='7044'>0.21011E+02</wgt>
<wgt id='7045'>0.20924E+02</wgt>
<wgt id='7046'>0.21208E+02</wgt>
<wgt id='7047'>0.21157E+02</wgt>
<wgt id='7048'>0.21078E+02</wgt>
<wgt id='7049'>0.21056E+02</wgt>
<wgt id='7050'>0.21126E+02</wgt>
<wgt id='7060'>0.34122E+02</wgt>
<wgt id='8000'>0.21350E+02</wgt>
<wgt id='8001'>0.21344E+02</wgt>
<wgt id='8002'>0.21356E+02</wgt>
<wgt id='8003'>0.21351E+02</wgt>
<wgt id='8004'>0.21349E+02</wgt>
<wgt id='8005'>0.21300E+02</wgt>
<wgt id='8006'>0.21342E+02</wgt>
<wgt id='8007'>0.21332E+02</wgt>
<wgt id='8008'>0.21389E+02</wgt>
<wgt id='8009'>0.21430E+02</wgt>
<wgt id='8010'>0.21348E+02</wgt>
<wgt id='8011'>0.21341E+02</wgt>
<wgt id='8012'>0.21319E+02</wgt>
<wgt id='8013'>0.21338E+02</wgt>
<wgt id='8014'>0.21350E+02</wgt>
<wgt id='8015'>0.21333E+02</wgt>
<wgt id='8016'>0.21361E+02</wgt>
<wgt id='8017'>0.21354E+02</wgt>
<wgt id='8018'>0.21361E+02</wgt>
<wgt id='8019'>0.21374E+02</wgt>
<wgt id='8020'>0.21302E+02</wgt>
<wgt id='8021'>0.21347E+02</wgt>
<wgt id='8022'>0.21264E+02</wgt>
<wgt id='8023'>0.21357E+02</wgt>
<wgt id='8024'>0.21363E+02</wgt>
<wgt id='8025'>0.21395E+02</wgt>
<wgt id='8026'>0.21387E+02</wgt>
<wgt id='8027'>0.21326E+02</wgt>
<wgt id='8028'>0.21371E+02</wgt>
<wgt id='8029'>0.21224E+02</wgt>
<wgt id='8500'>0.22314E+02</wgt>
<wgt id='8501'>0.22224E+02</wgt>
<wgt id='8502'>0.22406E+02</wgt>
<wgt id='8503'>0.22400E+02</wgt>
<wgt id='8504'>0.22270E+02</wgt>
<wgt id='8505'>0.22302E+02</wgt>
<wgt id='8506'>0.22301E+02</wgt>
<wgt id='8507'>0.22371E+02</wgt>
<wgt id='8508'>0.22384E+02</wgt>
<wgt id='8509'>0.22307E+02</wgt>
<wgt id='8510'>0.22579E+02</wgt>
<wgt id='8511'>0.22322E+02</wgt>
<wgt id='8512'>0.22161E+02</wgt>
<wgt id='8513'>0.22334E+02</wgt>
<wgt id='8514'>0.22104E+02</wgt>
<wgt id='8515'>0.22381E+02</wgt>
<wgt id='8516'>0.22334E+02</wgt>
<wgt id='8517'>0.22214E+02</wgt>
<wgt id='8518'>0.22246E+02</wgt>
<wgt id='8519'>0.22243E+02</wgt>
<wgt id='8520'>0.22305E+02</wgt>
<wgt id='8521'>0.22211E+02</wgt>
<wgt id='8522'>0.22345E+02</wgt>
<wgt id='8523'>0.22253E+02</wgt>
<wgt id='8524'>0.22305E+02</wgt>
<wgt id='8525'>0.22301E+02</wgt>
<wgt id='8526'>0.22279E+02</wgt>
<wgt id='8527'>0.22313E+02</wgt>
<wgt id='8528'>0.22258E+02</wgt>
<wgt id='8529'>0.22289E+02</wgt>
<wgt id='8530'>0.22316E+02</wgt>
<wgt id='8531'>0.22306E+02</wgt>
<wgt id='8532'>0.22316E+02</wgt>
<wgt id='8533'>0.22267E+02</wgt>
<wgt id='8534'>0.22319E+02</wgt>
<wgt id='8535'>0.22367E+02</wgt>
<wgt id='8536'>0.22299E+02</wgt>
<wgt id='8537'>0.22321E+02</wgt>
<wgt id='8538'>0.22298E+02</wgt>
<wgt id='8539'>0.22319E+02</wgt>
<wgt id='8540'>0.22317E+02</wgt>
<wgt id='8541'>0.22325E+02</wgt>
<wgt id='8542'>0.22328E+02</wgt>
<wgt id='8543'>0.22294E+02</wgt>
<wgt id='8544'>0.22332E+02</wgt>
<wgt id='8545'>0.22331E+02</wgt>
<wgt id='8546'>0.22339E+02</wgt>
<wgt id='8547'>0.22299E+02</wgt>
<wgt id='8548'>0.22296E+02</wgt>
<wgt id='8549'>0.22314E+02</wgt>
<wgt id='8550'>0.22315E+02</wgt>
<wgt id='8551'>0.22295E+02</wgt>
<wgt id='8552'>0.22315E+02</wgt>
<wgt id='8553'>0.22302E+02</wgt>
<wgt id='8554'>0.22306E+02</wgt>
<wgt id='8555'>0.22315E+02</wgt>
<wgt id='8556'>0.22312E+02</wgt>
<wgt id='8557'>0.22310E+02</wgt>
<wgt id='8558'>0.22338E+02</wgt>
<wgt id='8559'>0.22303E+02</wgt>
<wgt id='8560'>0.22289E+02</wgt>
<wgt id='8561'>0.22312E+02</wgt>
<wgt id='8562'>0.22296E+02</wgt>
<wgt id='8563'>0.22316E+02</wgt>
<wgt id='8564'>0.22308E+02</wgt>
<wgt id='8565'>0.22314E+02</wgt>
<wgt id='8566'>0.22312E+02</wgt>
<wgt id='8567'>0.22312E+02</wgt>
<wgt id='8568'>0.22324E+02</wgt>
<wgt id='8569'>0.22321E+02</wgt>
<wgt id='8570'>0.22314E+02</wgt>
<wgt id='8571'>0.22304E+02</wgt>
<wgt id='8572'>0.22305E+02</wgt>
<wgt id='8573'>0.22304E+02</wgt>
<wgt id='8574'>0.22318E+02</wgt>
<wgt id='8575'>0.22312E+02</wgt>
<wgt id='8576'>0.22312E+02</wgt>
<wgt id='8577'>0.22312E+02</wgt>
<wgt id='8578'>0.22316E+02</wgt>
<wgt id='8579'>0.22328E+02</wgt>
<wgt id='8580'>0.22314E+02</wgt>
<wgt id='8581'>0.22319E+02</wgt>
<wgt id='8582'>0.22300E+02</wgt>
<wgt id='8583'>0.22324E+02</wgt>
<wgt id='8584'>0.22320E+02</wgt>
<wgt id='8585'>0.22319E+02</wgt>
<wgt id='8586'>0.22327E+02</wgt>
<wgt id='8587'>0.22311E+02</wgt>
<wgt id='8588'>0.22309E+02</wgt>
<wgt id='8589'>0.22315E+02</wgt>
<wgt id='8590'>0.22312E+02</wgt>
<wgt id='8591'>0.22310E+02</wgt>
<wgt id='8592'>0.22314E+02</wgt>
<wgt id='8593'>0.22306E+02</wgt>
<wgt id='8594'>0.22317E+02</wgt>
<wgt id='8595'>0.22316E+02</wgt>
<wgt id='8596'>0.22309E+02</wgt>
<wgt id='8597'>0.22317E+02</wgt>
<wgt id='8598'>0.22319E+02</wgt>
<wgt id='8599'>0.22317E+02</wgt>
<wgt id='8600'>0.22314E+02</wgt>
<wgt id='8601'>0.21806E+02</wgt>
<wgt id='8602'>0.22791E+02</wgt>
<wgt id='9000'>0.21148E+02</wgt>
<wgt id='9001'>0.21157E+02</wgt>
<wgt id='9002'>0.21208E+02</wgt>
<wgt id='9003'>0.21044E+02</wgt>
<wgt id='9004'>0.21134E+02</wgt>
<wgt id='9005'>0.21181E+02</wgt>
<wgt id='9006'>0.21156E+02</wgt>
<wgt id='9007'>0.21212E+02</wgt>
<wgt id='9008'>0.21191E+02</wgt>
<wgt id='9009'>0.21131E+02</wgt>
<wgt id='9010'>0.21084E+02</wgt>
<wgt id='9011'>0.21330E+02</wgt>
<wgt id='9012'>0.21037E+02</wgt>
<wgt id='9013'>0.20939E+02</wgt>
<wgt id='9014'>0.21046E+02</wgt>
<wgt id='9015'>0.21141E+02</wgt>
<wgt id='9016'>0.21333E+02</wgt>
<wgt id='9017'>0.21080E+02</wgt>
<wgt id='9018'>0.21107E+02</wgt>
<wgt id='9019'>0.21129E+02</wgt>
<wgt id='9020'>0.21265E+02</wgt>
<wgt id='9021'>0.21130E+02</wgt>
<wgt id='9022'>0.21183E+02</wgt>
<wgt id='9023'>0.21081E+02</wgt>
<wgt id='9024'>0.21110E+02</wgt>
<wgt id='9025'>0.21168E+02</wgt>
<wgt id='9026'>0.21144E+02</wgt>
<wgt id='9027'>0.21126E+02</wgt>
<wgt id='9028'>0.21169E+02</wgt>
<wgt id='9029'>0.21175E+02</wgt>
<wgt id='9030'>0.21160E+02</wgt>
<wgt id='9031'>0.21137E+02</wgt>
<wgt id='9032'>0.21165E+02</wgt>
<wgt id='9033'>0.21173E+02</wgt>
<wgt id='9034'>0.21145E+02</wgt>
<wgt id='9035'>0.21182E+02</wgt>
<wgt id='9036'>0.21153E+02</wgt>
<wgt id='9037'>0.21167E+02</wgt>
<wgt id='9038'>0.21154E+02</wgt>
<wgt id='9039'>0.21150E+02</wgt>
<wgt id='9040'>0.21128E+02</wgt>
<wgt id='9041'>0.21141E+02</wgt>
<wgt id='9042'>0.21145E+02</wgt>
<wgt id='9043'>0.21130E+02</wgt>
<wgt id='9044'>0.21154E+02</wgt>
<wgt id='9045'>0.21147E+02</wgt>
<wgt id='9046'>0.21122E+02</wgt>
<wgt id='9047'>0.21144E+02</wgt>
<wgt id='9048'>0.21155E+02</wgt>
<wgt id='9049'>0.21136E+02</wgt>
<wgt id='9050'>0.21151E+02</wgt>
<wgt id='9051'>0.21160E+02</wgt>
<wgt id='9052'>0.21156E+02</wgt>
<wgt id='9053'>0.21151E+02</wgt>
<wgt id='9054'>0.21140E+02</wgt>
<wgt id='9055'>0.21142E+02</wgt>
<wgt id='9056'>0.21165E+02</wgt>
<wgt id='9057'>0.21148E+02</wgt>
<wgt id='9058'>0.21131E+02</wgt>
<wgt id='9059'>0.21139E+02</wgt>
<wgt id='9060'>0.21141E+02</wgt>
<wgt id='9061'>0.21151E+02</wgt>
<wgt id='9062'>0.21151E+02</wgt>
<wgt id='9063'>0.21157E+02</wgt>
<wgt id='9064'>0.21143E+02</wgt>
<wgt id='9065'>0.21147E+02</wgt>
<wgt id='9066'>0.21151E+02</wgt>
<wgt id='9067'>0.21155E+02</wgt>
<wgt id='9068'>0.21154E+02</wgt>
<wgt id='9069'>0.21161E+02</wgt>
<wgt id='9070'>0.21145E+02</wgt>
<wgt id='9071'>0.21162E+02</wgt>
<wgt id='9072'>0.21162E+02</wgt>
<wgt id='9073'>0.21143E+02</wgt>
<wgt id='9074'>0.21151E+02</wgt>
<wgt id='9075'>0.21147E+02</wgt>
<wgt id='9076'>0.21146E+02</wgt>
<wgt id='9077'>0.21153E+02</wgt>
<wgt id='9078'>0.21150E+02</wgt>
<wgt id='9079'>0.21145E+02</wgt>
<wgt id='9080'>0.21164E+02</wgt>
<wgt id='9081'>0.21146E+02</wgt>
<wgt id='9082'>0.21154E+02</wgt>
<wgt id='9083'>0.21141E+02</wgt>
<wgt id='9084'>0.21141E+02</wgt>
<wgt id='9085'>0.21142E+02</wgt>
<wgt id='9086'>0.21152E+02</wgt>
<wgt id='9087'>0.21134E+02</wgt>
<wgt id='9088'>0.21143E+02</wgt>
<wgt id='9089'>0.21143E+02</wgt>
<wgt id='9090'>0.21152E+02</wgt>
<wgt id='9091'>0.21145E+02</wgt>
<wgt id='9092'>0.21147E+02</wgt>
<wgt id='9093'>0.21145E+02</wgt>
<wgt id='9094'>0.21146E+02</wgt>
<wgt id='9095'>0.21151E+02</wgt>
<wgt id='9096'>0.21144E+02</wgt>
<wgt id='9097'>0.21150E+02</wgt>
<wgt id='9098'>0.21148E+02</wgt>
<wgt id='9099'>0.21143E+02</wgt>
<wgt id='9100'>0.21148E+02</wgt>
<wgt id='9101'>0.20740E+02</wgt>
<wgt id='9102'>0.21548E+02</wgt>
<wgt id='10000'>0.22308E+02</wgt>
<wgt id='10001'>0.22388E+02</wgt>
<wgt id='10002'>0.22206E+02</wgt>
<wgt id='10003'>0.22301E+02</wgt>
<wgt id='10004'>0.22211E+02</wgt>
<wgt id='10005'>0.22672E+02</wgt>
<wgt id='10006'>0.22262E+02</wgt>
<wgt id='10007'>0.22294E+02</wgt>
<wgt id='10008'>0.22364E+02</wgt>
<wgt id='10009'>0.22256E+02</wgt>
<wgt id='10010'>0.22344E+02</wgt>
<wgt id='10011'>0.22274E+02</wgt>
<wgt id='10012'>0.22277E+02</wgt>
<wgt id='10013'>0.22312E+02</wgt>
<wgt id='10014'>0.22292E+02</wgt>
<wgt id='10015'>0.22328E+02</wgt>
<wgt id='10016'>0.22276E+02</wgt>
<wgt id='10017'>0.22195E+02</wgt>
<wgt id='10018'>0.22337E+02</wgt>
<wgt id='10019'>0.22283E+02</wgt>
<wgt id='10020'>0.22278E+02</wgt>
<wgt id='10021'>0.22297E+02</wgt>
<wgt id='10022'>0.22290E+02</wgt>
<wgt id='10023'>0.22315E+02</wgt>
<wgt id='10024'>0.22286E+02</wgt>
<wgt id='10025'>0.22288E+02</wgt>
<wgt id='10026'>0.22359E+02</wgt>
<wgt id='10027'>0.22349E+02</wgt>
<wgt id='10028'>0.22481E+02</wgt>
<wgt id='10029'>0.22336E+02</wgt>
<wgt id='10030'>0.22300E+02</wgt>
<wgt id='10031'>0.21806E+02</wgt>
<wgt id='10032'>0.22791E+02</wgt>
<wgt id='11000'>0.21142E+02</wgt>
<wgt id='11001'>0.20999E+02</wgt>
<wgt id='11002'>0.21200E+02</wgt>
<wgt id='11003'>0.21118E+02</wgt>
<wgt id='11004'>0.21201E+02</wgt>
<wgt id='11005'>0.20958E+02</wgt>
<wgt id='11006'>0.21150E+02</wgt>
<wgt id='11007'>0.21098E+02</wgt>
<wgt id='11008'>0.21094E+02</wgt>
<wgt id='11009'>0.21074E+02</wgt>
<wgt id='11010'>0.21267E+02</wgt>
<wgt id='11011'>0.21074E+02</wgt>
<wgt id='11012'>0.21154E+02</wgt>
<wgt id='11013'>0.21196E+02</wgt>
<wgt id='11014'>0.21105E+02</wgt>
<wgt id='11015'>0.21127E+02</wgt>
<wgt id='11016'>0.21128E+02</wgt>
<wgt id='11017'>0.21258E+02</wgt>
<wgt id='11018'>0.21134E+02</wgt>
<wgt id='11019'>0.21133E+02</wgt>
<wgt id='11020'>0.21186E+02</wgt>
<wgt id='11021'>0.21179E+02</wgt>
<wgt id='11022'>0.21416E+02</wgt>
<wgt id='11023'>0.21147E+02</wgt>
<wgt id='11024'>0.21158E+02</wgt>
<wgt id='11025'>0.21127E+02</wgt>
<wgt id='11026'>0.21148E+02</wgt>
<wgt id='11027'>0.21139E+02</wgt>
<wgt id='11028'>0.21159E+02</wgt>
<wgt id='11029'>0.21162E+02</wgt>
<wgt id='11030'>0.21141E+02</wgt>
<wgt id='11031'>0.20740E+02</wgt>
<wgt id='11032'>0.21548E+02</wgt>
<wgt id='12000'>0.23180E+02</wgt>
<wgt id='12001'>0.23150E+02</wgt>
<wgt id='12002'>0.23210E+02</wgt>
<wgt id='12003'>0.23235E+02</wgt>
<wgt id='12004'>0.23124E+02</wgt>
<wgt id='12005'>0.23212E+02</wgt>
<wgt id='12006'>0.23148E+02</wgt>
<wgt id='12007'>0.23239E+02</wgt>
<wgt id='12008'>0.23122E+02</wgt>
<wgt id='12009'>0.23202E+02</wgt>
<wgt id='12010'>0.23158E+02</wgt>
<wgt id='12011'>0.23100E+02</wgt>
<wgt id='12012'>0.23261E+02</wgt>
<wgt id='12013'>0.23103E+02</wgt>
<wgt id='12014'>0.23258E+02</wgt>
<wgt id='12015'>0.23199E+02</wgt>
<wgt id='12016'>0.23154E+02</wgt>
<wgt id='12017'>0.23259E+02</wgt>
<wgt id='12018'>0.23095E+02</wgt>
<wgt id='12019'>0.23141E+02</wgt>
<wgt id='12020'>0.23217E+02</wgt>
<wgt id='12021'>0.23250E+02</wgt>
<wgt id='12022'>0.23087E+02</wgt>
<wgt id='12023'>0.23046E+02</wgt>
<wgt id='12024'>0.23212E+02</wgt>
<wgt id='12025'>0.23184E+02</wgt>
<wgt id='12026'>0.23206E+02</wgt>
<wgt id='12027'>0.23262E+02</wgt>
<wgt id='12028'>0.23120E+02</wgt>
<wgt id='12050'>0.23180E+02</wgt>
<wgt id='12051'>0.23185E+02</wgt>
<wgt id='12052'>0.23156E+02</wgt>
<wgt id='12053'>0.23180E+02</wgt>
<wgt id='12054'>0.23165E+02</wgt>
<wgt id='12055'>0.23253E+02</wgt>
<wgt id='12056'>0.23132E+02</wgt>
<wgt id='12057'>0.23114E+02</wgt>
<wgt id='12058'>0.23247E+02</wgt>
<wgt id='12059'>0.23163E+02</wgt>
<wgt id='12060'>0.23206E+02</wgt>
<wgt id='12061'>0.23145E+02</wgt>
<wgt id='12062'>0.23216E+02</wgt>
<wgt id='12063'>0.23015E+02</wgt>
<wgt id='13000'>0.21532E+02</wgt>
<wgt id='13001'>0.21515E+02</wgt>
<wgt id='13002'>0.21545E+02</wgt>
<wgt id='13003'>0.21562E+02</wgt>
<wgt id='13004'>0.21499E+02</wgt>
<wgt id='13005'>0.21578E+02</wgt>
<wgt id='13006'>0.21483E+02</wgt>
<wgt id='13007'>0.21617E+02</wgt>
<wgt id='13008'>0.21445E+02</wgt>
<wgt id='13009'>0.21509E+02</wgt>
<wgt id='13010'>0.21552E+02</wgt>
<wgt id='13011'>0.21588E+02</wgt>
<wgt id='13012'>0.21473E+02</wgt>
<wgt id='13013'>0.21477E+02</wgt>
<wgt id='13014'>0.21584E+02</wgt>
<wgt id='13015'>0.21518E+02</wgt>
<wgt id='13016'>0.21541E+02</wgt>
<wgt id='13017'>0.21518E+02</wgt>
<wgt id='13018'>0.21539E+02</wgt>
<wgt id='13019'>0.21504E+02</wgt>
<wgt id='13020'>0.21556E+02</wgt>
<wgt id='13021'>0.21429E+02</wgt>
<wgt id='13022'>0.21605E+02</wgt>
<wgt id='13023'>0.21490E+02</wgt>
<wgt id='13024'>0.21568E+02</wgt>
<wgt id='13025'>0.21405E+02</wgt>
<wgt id='13026'>0.21607E+02</wgt>
<wgt id='13027'>0.21502E+02</wgt>
<wgt id='13028'>0.21582E+02</wgt>
<wgt id='13050'>0.21532E+02</wgt>
<wgt id='13051'>0.21546E+02</wgt>
<wgt id='13052'>0.21455E+02</wgt>
<wgt id='13053'>0.21537E+02</wgt>
<wgt id='13054'>0.21519E+02</wgt>
<wgt id='13055'>0.21391E+02</wgt>
<wgt id='13056'>0.21546E+02</wgt>
<wgt id='13057'>0.21471E+02</wgt>
<wgt id='13058'>0.21633E+02</wgt>
<wgt id='13059'>0.21482E+02</wgt>
<wgt id='13060'>0.21408E+02</wgt>
<wgt id='13061'>0.21470E+02</wgt>
<wgt id='13062'>0.21693E+02</wgt>
<wgt id='13063'>0.21490E+02</wgt>
<wgt id='14000'>0.22032E+02</wgt>
<wgt id='14001'>0.22029E+02</wgt>
<wgt id='14002'>0.22025E+02</wgt>
<wgt id='14003'>0.22022E+02</wgt>
<wgt id='14004'>0.22019E+02</wgt>
<wgt id='14005'>0.22015E+02</wgt>
<wgt id='14006'>0.22012E+02</wgt>
<wgt id='14007'>0.22009E+02</wgt>
<wgt id='14008'>0.22005E+02</wgt>
<wgt id='14009'>0.22002E+02</wgt>
<wgt id='14010'>0.21998E+02</wgt>
<wgt id='14011'>0.21995E+02</wgt>
<wgt id='14012'>0.21992E+02</wgt>
<wgt id='14013'>0.21988E+02</wgt>
<wgt id='14014'>0.21985E+02</wgt>
<wgt id='14015'>0.21982E+02</wgt>
<wgt id='14016'>0.21978E+02</wgt>
<wgt id='14017'>0.21975E+02</wgt>
<wgt id='14018'>0.21972E+02</wgt>
<wgt id='14019'>0.21968E+02</wgt>
<wgt id='14020'>0.21965E+02</wgt>
<wgt id='14021'>0.21962E+02</wgt>
<wgt id='14022'>0.21958E+02</wgt>
<wgt id='14023'>0.21955E+02</wgt>
<wgt id='14024'>0.21952E+02</wgt>
<wgt id='14025'>0.21948E+02</wgt>
<wgt id='14026'>0.21945E+02</wgt>
<wgt id='14027'>0.21941E+02</wgt>
<wgt id='14028'>0.21938E+02</wgt>
<wgt id='14029'>0.21935E+02</wgt>
<wgt id='14030'>0.21932E+02</wgt>
<wgt id='15000'>0.20895E+02</wgt>
<wgt id='15001'>0.20904E+02</wgt>
<wgt id='15002'>0.20954E+02</wgt>
<wgt id='15003'>0.20792E+02</wgt>
<wgt id='15004'>0.20881E+02</wgt>
<wgt id='15005'>0.20928E+02</wgt>
<wgt id='15006'>0.20903E+02</wgt>
<wgt id='15007'>0.20958E+02</wgt>
<wgt id='15008'>0.20938E+02</wgt>
<wgt id='15009'>0.20878E+02</wgt>
<wgt id='15010'>0.20831E+02</wgt>
<wgt id='15011'>0.21074E+02</wgt>
<wgt id='15012'>0.20785E+02</wgt>
<wgt id='15013'>0.20689E+02</wgt>
<wgt id='15014'>0.20794E+02</wgt>
<wgt id='15015'>0.20887E+02</wgt>
<wgt id='15016'>0.21077E+02</wgt>
<wgt id='15017'>0.20827E+02</wgt>
<wgt id='15018'>0.20855E+02</wgt>
<wgt id='15019'>0.20876E+02</wgt>
<wgt id='15020'>0.21010E+02</wgt>
<wgt id='15021'>0.20877E+02</wgt>
<wgt id='15022'>0.20930E+02</wgt>
<wgt id='15023'>0.20827E+02</wgt>
<wgt id='15024'>0.20856E+02</wgt>
<wgt id='15025'>0.20914E+02</wgt>
<wgt id='15026'>0.20890E+02</wgt>
<wgt id='15027'>0.20874E+02</wgt>
<wgt id='15028'>0.20916E+02</wgt>
<wgt id='15029'>0.20921E+02</wgt>
<wgt id='15030'>0.20908E+02</wgt>
<wgt id='15031'>0.20883E+02</wgt>
<wgt id='15032'>0.20911E+02</wgt>
<wgt id='15033'>0.20920E+02</wgt>
<wgt id='15034'>0.20892E+02</wgt>
<wgt id='15035'>0.20929E+02</wgt>
<wgt id='15036'>0.20899E+02</wgt>
<wgt id='15037'>0.20913E+02</wgt>
<wgt id='15038'>0.20900E+02</wgt>
<wgt id='15039'>0.20896E+02</wgt>
<wgt id='15040'>0.20874E+02</wgt>
<wgt id='15041'>0.20887E+02</wgt>
<wgt id='15042'>0.20891E+02</wgt>
<wgt id='15043'>0.20876E+02</wgt>
<wgt id='15044'>0.20900E+02</wgt>
<wgt id='15045'>0.20893E+02</wgt>
<wgt id='15046'>0.20868E+02</wgt>
<wgt id='15047'>0.20890E+02</wgt>
<wgt id='15048'>0.20901E+02</wgt>
<wgt id='15049'>0.20883E+02</wgt>
<wgt id='15050'>0.20897E+02</wgt>
<wgt id='15051'>0.20906E+02</wgt>
<wgt id='15052'>0.20903E+02</wgt>
<wgt id='15053'>0.20897E+02</wgt>
<wgt id='15054'>0.20886E+02</wgt>
<wgt id='15055'>0.20888E+02</wgt>
<wgt id='15056'>0.20912E+02</wgt>
<wgt id='15057'>0.20895E+02</wgt>
<wgt id='15058'>0.20878E+02</wgt>
<wgt id='15059'>0.20886E+02</wgt>
<wgt id='15060'>0.20888E+02</wgt>
<wgt id='15061'>0.20897E+02</wgt>
<wgt id='15062'>0.20898E+02</wgt>
<wgt id='15063'>0.20904E+02</wgt>
<wgt id='15064'>0.20890E+02</wgt>
<wgt id='15065'>0.20894E+02</wgt>
<wgt id='15066'>0.20897E+02</wgt>
<wgt id='15067'>0.20901E+02</wgt>
<wgt id='15068'>0.20900E+02</wgt>
<wgt id='15069'>0.20908E+02</wgt>
<wgt id='15070'>0.20891E+02</wgt>
<wgt id='15071'>0.20908E+02</wgt>
<wgt id='15072'>0.20909E+02</wgt>
<wgt id='15073'>0.20889E+02</wgt>
<wgt id='15074'>0.20898E+02</wgt>
<wgt id='15075'>0.20893E+02</wgt>
<wgt id='15076'>0.20893E+02</wgt>
<wgt id='15077'>0.20899E+02</wgt>
<wgt id='15078'>0.20897E+02</wgt>
<wgt id='15079'>0.20892E+02</wgt>
<wgt id='15080'>0.20910E+02</wgt>
<wgt id='15081'>0.20893E+02</wgt>
<wgt id='15082'>0.20900E+02</wgt>
<wgt id='15083'>0.20888E+02</wgt>
<wgt id='15084'>0.20888E+02</wgt>
<wgt id='15085'>0.20888E+02</wgt>
<wgt id='15086'>0.20898E+02</wgt>
<wgt id='15087'>0.20881E+02</wgt>
<wgt id='15088'>0.20890E+02</wgt>
<wgt id='15089'>0.20889E+02</wgt>
<wgt id='15090'>0.20898E+02</wgt>
<wgt id='15091'>0.20892E+02</wgt>
<wgt id='15092'>0.20894E+02</wgt>
<wgt id='15093'>0.20891E+02</wgt>
<wgt id='15094'>0.20893E+02</wgt>
<wgt id='15095'>0.20897E+02</wgt>
<wgt id='15096'>0.20890E+02</wgt>
<wgt id='15097'>0.20896E+02</wgt>
<wgt id='15098'>0.20894E+02</wgt>
<wgt id='15099'>0.20890E+02</wgt>
<wgt id='15100'>0.20894E+02</wgt>
<wgt id='15101'>0.20895E+02</wgt>
<wgt id='15102'>0.20893E+02</wgt>
<wgt id='15103'>0.20895E+02</wgt>
<wgt id='15104'>0.20895E+02</wgt>
<wgt id='15105'>0.20896E+02</wgt>
<wgt id='15106'>0.20895E+02</wgt>
<wgt id='15107'>0.20894E+02</wgt>
<wgt id='1500'>0.22426E+02</wgt>
<wgt id='1501'>0.21019E+02</wgt>
<wgt id='1502'>0.22321E+02</wgt>
<wgt id='1503'>0.22592E+02</wgt>
<wgt id='1504'>0.22085E+02</wgt>
<wgt id='1505'>0.20570E+02</wgt>
<wgt id='1506'>0.22872E+02</wgt>
<wgt id='1507'>0.22517E+02</wgt>
<wgt id='1508'>0.22591E+02</wgt>
<wgt id='1509'>0.22666E+02</wgt>
<wgt id='1510'>0.21894E+02</wgt>
<wgt id='1511'>0.21868E+02</wgt>
<wgt id='1512'>0.22786E+02</wgt>
<wgt id='1513'>0.22800E+02</wgt>
<wgt id='1514'>0.22200E+02</wgt>
<wgt id='1515'>0.22885E+02</wgt>
<wgt id='1516'>0.22584E+02</wgt>
<wgt id='1517'>0.22339E+02</wgt>
<wgt id='1518'>0.22296E+02</wgt>
<wgt id='1519'>0.22724E+02</wgt>
<wgt id='1520'>0.22934E+02</wgt>
<wgt id='1521'>0.22685E+02</wgt>
<wgt id='1522'>0.22245E+02</wgt>
<wgt id='1523'>0.24008E+02</wgt>
<wgt id='1524'>0.22432E+02</wgt>
<wgt id='1525'>0.22465E+02</wgt>
<wgt id='1526'>0.22299E+02</wgt>
<wgt id='1527'>0.22163E+02</wgt>
<wgt id='1528'>0.22239E+02</wgt>
<wgt id='1529'>0.22516E+02</wgt>
<wgt id='1530'>0.22981E+02</wgt>
<wgt id='1531'>0.22380E+02</wgt>
<wgt id='1532'>0.21948E+02</wgt>
<wgt id='1533'>0.22202E+02</wgt>
<wgt id='1534'>0.22547E+02</wgt>
<wgt id='1535'>0.22936E+02</wgt>
<wgt id='1536'>0.22492E+02</wgt>
<wgt id='1537'>0.22834E+02</wgt>
<wgt id='1538'>0.22546E+02</wgt>
<wgt id='1539'>0.21939E+02</wgt>
<wgt id='1540'>0.22504E+02</wgt>
<wgt id='1541'>0.22483E+02</wgt>
<wgt id='1542'>0.22376E+02</wgt>
<wgt id='1543'>0.22496E+02</wgt>
<wgt id='1544'>0.22391E+02</wgt>
<wgt id='1545'>0.22370E+02</wgt>
<wgt id='1546'>0.22768E+02</wgt>
<wgt id='1547'>0.22142E+02</wgt>
<wgt id='1548'>0.22243E+02</wgt>
<wgt id='1549'>0.22171E+02</wgt>
<wgt id='1550'>0.22287E+02</wgt>
<wgt id='1551'>0.22359E+02</wgt>
<wgt id='1552'>0.22152E+02</wgt>
<wgt id='1553'>0.22716E+02</wgt>
<wgt id='1554'>0.22559E+02</wgt>
<wgt id='1555'>0.22157E+02</wgt>
<wgt id='1556'>0.22128E+02</wgt>
<wgt id='1557'>0.22723E+02</wgt>
<wgt id='1558'>0.22163E+02</wgt>
<wgt id='1559'>0.22834E+02</wgt>
<wgt id='1560'>0.22313E+02</wgt>
<wgt id='1561'>0.22345E+02</wgt>
<wgt id='1562'>0.22527E+02</wgt>
<wgt id='1563'>0.22498E+02</wgt>
<wgt id='1564'>0.22034E+02</wgt>
<wgt id='1565'>0.22498E+02</wgt>
<wgt id='1566'>0.22558E+02</wgt>
<wgt id='1567'>0.23885E+02</wgt>
<wgt id='1568'>0.22188E+02</wgt>
<wgt id='1569'>0.21818E+02</wgt>
<wgt id='1570'>0.22191E+02</wgt>
<wgt id='1571'>0.22400E+02</wgt>
<wgt id='1572'>0.22648E+02</wgt>
<wgt id='1573'>0.21262E+02</wgt>
<wgt id='1574'>0.22751E+02</wgt>
<wgt id='1575'>0.22211E+02</wgt>
<wgt id='1576'>0.22144E+02</wgt>
<wgt id='1577'>0.22640E+02</wgt>
<wgt id='1578'>0.23013E+02</wgt>
<wgt id='1579'>0.22184E+02</wgt>
<wgt id='1580'>0.22417E+02</wgt>
<wgt id='1581'>0.22584E+02</wgt>
<wgt id='1582'>0.22065E+02</wgt>
<wgt id='1583'>0.22877E+02</wgt>
<wgt id='1584'>0.22304E+02</wgt>
<wgt id='1585'>0.22035E+02</wgt>
<wgt id='1586'>0.22293E+02</wgt>
<wgt id='1587'>0.22488E+02</wgt>
<wgt id='1588'>0.22343E+02</wgt>
<wgt id='1589'>0.23110E+02</wgt>
<wgt id='1590'>0.22304E+02</wgt>
<wgt id='1591'>0.22179E+02</wgt>
<wgt id='1592'>0.22412E+02</wgt>
<wgt id='1593'>0.22353E+02</wgt>
<wgt id='1594'>0.22904E+02</wgt>
<wgt id='1595'>0.22112E+02</wgt>
<wgt id='1596'>0.22699E+02</wgt>
<wgt id='1597'>0.22324E+02</wgt>
<wgt id='1598'>0.22855E+02</wgt>
<wgt id='1599'>0.22715E+02</wgt>
<wgt id='1600'>0.22753E+02</wgt>
<wgt id='1601'>0.22040E+02</wgt>
<wgt id='1602'>0.22681E+02</wgt>
<wgt id='1700'>0.21407E+02</wgt>
<wgt id='1800'>0.25595E+02</wgt>
<wgt id='1850'>0.31681E+02</wgt>
<wgt id='1900'>0.26663E+02</wgt>
<wgt id='1950'>0.31402E+02</wgt>
</rwgt>
</event>
<event>
      4   9999  2.16956E+01  1.97572E+02 -1.00000E+00  1.10551E-01
      21    -1     0     0   511   501  0.000000000E+00  0.000000000E+00  1.630736488E+03  1.630736488E+03  0.000000000E+00  0.00000E+00  9.000E+00
      21    -1     0     0   501   502  0.000000000E+00  0.000000000E+00 -2.864568815E+01  2.864568815E+01  0.000000000E+00  0.00000E+00  9.000E+00
      25     1     1     2     0     0  1.768281046E+02 -8.812722532E+01  8.146600204E+02  8.475436338E+02  1.249987036E+02  0.00000E+00  9.000E+00
      21     1     1     2   511   502 -1.768281046E+02  8.812722532E+01  7.874307793E+02  8.118385422E+02  1.078959322E-05  0.00000E+00  9.000E+00
#rwgt            2          11  0.98006235638984107                1        1035           0
<rwgt>
<wgt id='1001'>0.21696E+02</wgt>
<wgt id='1002'>0.20239E+02</wgt>
<wgt id='1003'>0.23189E+02</wgt>
<wgt id='1004'>0.16381E+02</wgt>
<wgt id='1005'>0.15281E+02</wgt>
<wgt id='1006'>0.17508E+02</wgt>
<wgt id='1007'>0.29632E+02</wgt>
<wgt id='1008'>0.27643E+02</wgt>
<wgt id='1009'>0.31671E+02</wgt>
<wgt id='2000'>0.21696E+02</wgt>
<wgt id='2001'>0.21671E+02</wgt>
<wgt id='2002'>0.21710E+02</wgt>
<wgt id='2003'>0.21670E+02</wgt>
<wgt id='2004'>0.21773E+02</wgt>
<wgt id='2005'>0.21706E+02</wgt>
<wgt id='2006'>0.21660E+02</wgt>
<wgt id='2007'>0.21700E+02</wgt>
<wgt id='2008'>0.21658E+02</wgt>
<wgt id='2009'>0.21720E+02</wgt>
<wgt id='2010'>0.21620E+02</wgt>
<wgt id='2011'>0.21663E+02</wgt>
<wgt id='2012'>0.21690E+02</wgt>
<wgt id='2013'>0.21650E+02</wgt>
<wgt id='2014'>0.21635E+02</wgt>
<wgt id='2015'>0.21679E+02</wgt>
<wgt id='2016'>0.21728E+02</wgt>
<wgt id='2017'>0.21698E+02</wgt>
<wgt id='2018'>0.21661E+02</wgt>
<wgt id='2019'>0.21703E+02</wgt>
<wgt id='2020'>0.21682E+02</wgt>
<wgt id='2021'>0.21744E+02</wgt>
<wgt id='2022'>0.21720E+02</wgt>
<wgt id='2023'>0.21770E+02</wgt>
<wgt id='2024'>0.21643E+02</wgt>
<wgt id='2025'>0.21752E+02</wgt>
<wgt id='2026'>0.21791E+02</wgt>
<wgt id='2027'>0.21643E+02</wgt>
<wgt id='2028'>0.21618E+02</wgt>
<wgt id='2029'>0.21860E+02</wgt>
<wgt id='2030'>0.21705E+02</wgt>
<wgt id='2031'>0.21701E+02</wgt>
<wgt id='2032'>0.21670E+02</wgt>
<wgt id='2033'>0.21656E+02</wgt>
<wgt id='2034'>0.21686E+02</wgt>
<wgt id='2035'>0.21762E+02</wgt>
<wgt id='2036'>0.21761E+02</wgt>
<wgt id='2037'>0.21639E+02</wgt>
<wgt id='2038'>0.21650E+02</wgt>
<wgt id='2039'>0.21616E+02</wgt>
<wgt id='2040'>0.21761E+02</wgt>
<wgt id='2041'>0.21788E+02</wgt>
<wgt id='2042'>0.21802E+02</wgt>
<wgt id='2043'>0.21451E+02</wgt>
<wgt id='2044'>0.21634E+02</wgt>
<wgt id='2045'>0.21704E+02</wgt>
<wgt id='2046'>0.21848E+02</wgt>
<wgt id='2047'>0.21788E+02</wgt>
<wgt id='2048'>0.21579E+02</wgt>
<wgt id='2049'>0.21608E+02</wgt>
<wgt id='2050'>0.21768E+02</wgt>
<wgt id='2051'>0.21555E+02</wgt>
<wgt id='2052'>0.21624E+02</wgt>
<wgt id='2053'>0.21668E+02</wgt>
<wgt id='2054'>0.21712E+02</wgt>
<wgt id='2055'>0.21762E+02</wgt>
<wgt id='2056'>0.21646E+02</wgt>
<wgt id='2057'>0.21567E+02</wgt>
<wgt id='2058'>0.21680E+02</wgt>
<wgt id='2059'>0.21716E+02</wgt>
<wgt id='2060'>0.21718E+02</wgt>
<wgt id='2061'>0.21699E+02</wgt>
<wgt id='2062'>0.21665E+02</wgt>
<wgt id='2063'>0.21695E+02</wgt>
<wgt id='2064'>0.21683E+02</wgt>
<wgt id='2065'>0.21651E+02</wgt>
<wgt id='2066'>0.21724E+02</wgt>
<wgt id='2067'>0.21698E+02</wgt>
<wgt id='2068'>0.21698E+02</wgt>
<wgt id='2069'>0.21749E+02</wgt>
<wgt id='2070'>0.21636E+02</wgt>
<wgt id='2071'>0.21675E+02</wgt>
<wgt id='2072'>0.21693E+02</wgt>
<wgt id='2073'>0.21623E+02</wgt>
<wgt id='2074'>0.21674E+02</wgt>
<wgt id='2075'>0.21646E+02</wgt>
<wgt id='2076'>0.21766E+02</wgt>
<wgt id='2077'>0.21586E+02</wgt>
<wgt id='2078'>0.21714E+02</wgt>
<wgt id='2079'>0.21712E+02</wgt>
<wgt id='2080'>0.21739E+02</wgt>
<wgt id='2081'>0.21722E+02</wgt>
<wgt id='2082'>0.21738E+02</wgt>
<wgt id='2083'>0.21702E+02</wgt>
<wgt id='2084'>0.21685E+02</wgt>
<wgt id='2085'>0.21717E+02</wgt>
<wgt id='2086'>0.21700E+02</wgt>
<wgt id='2087'>0.21661E+02</wgt>
<wgt id='2088'>0.21710E+02</wgt>
<wgt id='2089'>0.21656E+02</wgt>
<wgt id='2090'>0.21708E+02</wgt>
<wgt id='2091'>0.21710E+02</wgt>
<wgt id='2092'>0.21686E+02</wgt>
<wgt id='2093'>0.21711E+02</wgt>
<wgt id='2094'>0.21702E+02</wgt>
<wgt id='2095'>0.21726E+02</wgt>
<wgt id='2096'>0.21671E+02</wgt>
<wgt id='2097'>0.21734E+02</wgt>
<wgt id='2098'>0.21679E+02</wgt>
<wgt id='2099'>0.21689E+02</wgt>
<wgt id='2100'>0.21705E+02</wgt>
<wgt id='2101'>0.20768E+02</wgt>
<wgt id='2102'>0.22752E+02</wgt>
<wgt id='2104'>0.17507E+02</wgt>
<wgt id='2105'>0.18331E+02</wgt>
<wgt id='2106'>0.19150E+02</wgt>
<wgt id='2107'>0.19833E+02</wgt>
<wgt id='2108'>0.21207E+02</wgt>
<wgt id='2109'>0.22196E+02</wgt>
<wgt id='2110'>0.23604E+02</wgt>
<wgt id='2111'>0.24793E+02</wgt>
<wgt id='3000'>0.23989E+02</wgt>
<wgt id='3001'>0.23988E+02</wgt>
<wgt id='3002'>0.23950E+02</wgt>
<wgt id='3003'>0.24006E+02</wgt>
<wgt id='3004'>0.24103E+02</wgt>
<wgt id='3005'>0.23999E+02</wgt>
<wgt id='3006'>0.23983E+02</wgt>
<wgt id='3007'>0.23997E+02</wgt>
<wgt id='3008'>0.23951E+02</wgt>
<wgt id='3009'>0.23963E+02</wgt>
<wgt id='3010'>0.23971E+02</wgt>
<wgt id='3011'>0.23987E+02</wgt>
<wgt id='3012'>0.24010E+02</wgt>
<wgt id='3013'>0.24036E+02</wgt>
<wgt id='3014'>0.23980E+02</wgt>
<wgt id='3015'>0.23952E+02</wgt>
<wgt id='3016'>0.23986E+02</wgt>
<wgt id='3017'>0.23959E+02</wgt>
<wgt id='3018'>0.24040E+02</wgt>
<wgt id='3019'>0.24065E+02</wgt>
<wgt id='3020'>0.24034E+02</wgt>
<wgt id='3021'>0.23984E+02</wgt>
<wgt id='3022'>0.23985E+02</wgt>
<wgt id='3023'>0.23978E+02</wgt>
<wgt id='3024'>0.23954E+02</wgt>
<wgt id='3025'>0.24044E+02</wgt>
<wgt id='3026'>0.24039E+02</wgt>
<wgt id='3027'>0.24003E+02</wgt>
<wgt id='3028'>0.23898E+02</wgt>
<wgt id='3029'>0.23885E+02</wgt>
<wgt id='3030'>0.24168E+02</wgt>
<wgt id='3031'>0.24042E+02</wgt>
<wgt id='3032'>0.24037E+02</wgt>
<wgt id='3033'>0.24076E+02</wgt>
<wgt id='3034'>0.23963E+02</wgt>
<wgt id='3035'>0.24083E+02</wgt>
<wgt id='3036'>0.23957E+02</wgt>
<wgt id='3037'>0.24023E+02</wgt>
<wgt id='3038'>0.23957E+02</wgt>
<wgt id='3039'>0.23923E+02</wgt>
<wgt id='3040'>0.23955E+02</wgt>
<wgt id='3041'>0.24009E+02</wgt>
<wgt id='3042'>0.24086E+02</wgt>
<wgt id='3043'>0.24132E+02</wgt>
<wgt id='3044'>0.23924E+02</wgt>
<wgt id='3045'>0.23900E+02</wgt>
<wgt id='3046'>0.24097E+02</wgt>
<wgt id='3047'>0.24086E+02</wgt>
<wgt id='3048'>0.23823E+02</wgt>
<wgt id='3049'>0.23994E+02</wgt>
<wgt id='3050'>0.23851E+02</wgt>
<wgt id='3051'>0.24105E+02</wgt>
<wgt id='3052'>0.23953E+02</wgt>
<wgt id='3053'>0.23940E+02</wgt>
<wgt id='3054'>0.24021E+02</wgt>
<wgt id='3055'>0.24181E+02</wgt>
<wgt id='3056'>0.23928E+02</wgt>
<wgt id='3057'>0.23994E+02</wgt>
<wgt id='3058'>0.24028E+02</wgt>
<wgt id='3059'>0.23901E+02</wgt>
<wgt id='3060'>0.24036E+02</wgt>
<wgt id='3061'>0.23939E+02</wgt>
<wgt id='3062'>0.23979E+02</wgt>
<wgt id='3063'>0.23918E+02</wgt>
<wgt id='3064'>0.24039E+02</wgt>
<wgt id='3065'>0.23928E+02</wgt>
<wgt id='3066'>0.24015E+02</wgt>
<wgt id='3067'>0.23990E+02</wgt>
<wgt id='3068'>0.23973E+02</wgt>
<wgt id='3069'>0.23936E+02</wgt>
<wgt id='3070'>0.23966E+02</wgt>
<wgt id='3071'>0.24006E+02</wgt>
<wgt id='3072'>0.23972E+02</wgt>
<wgt id='3073'>0.23977E+02</wgt>
<wgt id='3074'>0.24116E+02</wgt>
<wgt id='3075'>0.23981E+02</wgt>
<wgt id='3076'>0.24034E+02</wgt>
<wgt id='3077'>0.24055E+02</wgt>
<wgt id='3078'>0.24009E+02</wgt>
<wgt id='3079'>0.23887E+02</wgt>
<wgt id='3080'>0.23945E+02</wgt>
<wgt id='3081'>0.23965E+02</wgt>
<wgt id='3082'>0.23942E+02</wgt>
<wgt id='3083'>0.23951E+02</wgt>
<wgt id='3084'>0.23959E+02</wgt>
<wgt id='3085'>0.24044E+02</wgt>
<wgt id='3086'>0.23915E+02</wgt>
<wgt id='3087'>0.23935E+02</wgt>
<wgt id='3088'>0.23960E+02</wgt>
<wgt id='3089'>0.23974E+02</wgt>
<wgt id='3090'>0.24008E+02</wgt>
<wgt id='3091'>0.23994E+02</wgt>
<wgt id='3092'>0.23982E+02</wgt>
<wgt id='3093'>0.24002E+02</wgt>
<wgt id='3094'>0.24028E+02</wgt>
<wgt id='3095'>0.23982E+02</wgt>
<wgt id='3096'>0.23984E+02</wgt>
<wgt id='3097'>0.23991E+02</wgt>
<wgt id='3098'>0.23969E+02</wgt>
<wgt id='3099'>0.23994E+02</wgt>
<wgt id='3100'>0.24010E+02</wgt>
<wgt id='3101'>0.23147E+02</wgt>
<wgt id='3102'>0.24929E+02</wgt>
<wgt id='5000'>0.24717E+02</wgt>
<wgt id='5001'>0.24840E+02</wgt>
<wgt id='5002'>0.24816E+02</wgt>
<wgt id='5003'>0.24737E+02</wgt>
<wgt id='5004'>0.24979E+02</wgt>
<wgt id='5005'>0.25478E+02</wgt>
<wgt id='5006'>0.25526E+02</wgt>
<wgt id='5007'>0.25114E+02</wgt>
<wgt id='5008'>0.24933E+02</wgt>
<wgt id='5009'>0.24928E+02</wgt>
<wgt id='5010'>0.24655E+02</wgt>
<wgt id='5011'>0.25322E+02</wgt>
<wgt id='5012'>0.24129E+02</wgt>
<wgt id='5013'>0.24857E+02</wgt>
<wgt id='5014'>0.24358E+02</wgt>
<wgt id='5015'>0.24066E+02</wgt>
<wgt id='5016'>0.26571E+02</wgt>
<wgt id='5017'>0.24539E+02</wgt>
<wgt id='5018'>0.24890E+02</wgt>
<wgt id='5019'>0.24204E+02</wgt>
<wgt id='5020'>0.25141E+02</wgt>
<wgt id='5021'>0.24349E+02</wgt>
<wgt id='5022'>0.24952E+02</wgt>
<wgt id='5023'>0.24441E+02</wgt>
<wgt id='5024'>0.25045E+02</wgt>
<wgt id='5025'>0.24779E+02</wgt>
<wgt id='5026'>0.24668E+02</wgt>
<wgt id='5027'>0.24321E+02</wgt>
<wgt id='5028'>0.25399E+02</wgt>
<wgt id='5029'>0.25790E+02</wgt>
<wgt id='5030'>0.24069E+02</wgt>
<wgt id='5031'>0.25203E+02</wgt>
<wgt id='5032'>0.24026E+02</wgt>
<wgt id='5033'>0.24410E+02</wgt>
<wgt id='5034'>0.25024E+02</wgt>
<wgt id='5035'>0.24434E+02</wgt>
<wgt id='5036'>0.24948E+02</wgt>
<wgt id='5037'>0.24209E+02</wgt>
<wgt id='5038'>0.25318E+02</wgt>
<wgt id='5039'>0.25027E+02</wgt>
<wgt id='5040'>0.24566E+02</wgt>
<wgt id='5041'>0.25500E+02</wgt>
<wgt id='5042'>0.24476E+02</wgt>
<wgt id='5043'>0.23735E+02</wgt>
<wgt id='5044'>0.26031E+02</wgt>
<wgt id='5045'>0.24586E+02</wgt>
<wgt id='5046'>0.25024E+02</wgt>
<wgt id='5047'>0.24696E+02</wgt>
<wgt id='5048'>0.24424E+02</wgt>
<wgt id='5049'>0.24789E+02</wgt>
<wgt id='5050'>0.24419E+02</wgt>
<wgt id='5051'>0.24593E+02</wgt>
<wgt id='5052'>0.24743E+02</wgt>
<wgt id='5053'>0.23491E+02</wgt>
<wgt id='5054'>0.24046E+02</wgt>
<wgt id='5055'>0.24639E+02</wgt>
<wgt id='5056'>0.24929E+02</wgt>
<wgt id='5060'>0.23405E+02</wgt>
<wgt id='5070'>0.26227E+02</wgt>
<wgt id='4000'>0.25496E+02</wgt>
<wgt id='4001'>0.25451E+02</wgt>
<wgt id='4002'>0.25345E+02</wgt>
<wgt id='4003'>0.25701E+02</wgt>
<wgt id='4004'>0.25810E+02</wgt>
<wgt id='4005'>0.24955E+02</wgt>
<wgt id='4006'>0.25802E+02</wgt>
<wgt id='4007'>0.25434E+02</wgt>
<wgt id='4008'>0.25517E+02</wgt>
<wgt id='4009'>0.26520E+02</wgt>
<wgt id='4010'>0.24620E+02</wgt>
<wgt id='4011'>0.25536E+02</wgt>
<wgt id='4012'>0.25443E+02</wgt>
<wgt id='4013'>0.27181E+02</wgt>
<wgt id='4014'>0.24479E+02</wgt>
<wgt id='4015'>0.26204E+02</wgt>
<wgt id='4016'>0.25052E+02</wgt>
<wgt id='4017'>0.25065E+02</wgt>
<wgt id='4018'>0.26018E+02</wgt>
<wgt id='4019'>0.24549E+02</wgt>
<wgt id='4020'>0.26524E+02</wgt>
<wgt id='4021'>0.25276E+02</wgt>
<wgt id='4022'>0.25946E+02</wgt>
<wgt id='4023'>0.26197E+02</wgt>
<wgt id='4024'>0.24816E+02</wgt>
<wgt id='4025'>0.25457E+02</wgt>
<wgt id='4026'>0.25529E+02</wgt>
<wgt id='4027'>0.25842E+02</wgt>
<wgt id='4028'>0.25014E+02</wgt>
<wgt id='4029'>0.25873E+02</wgt>
<wgt id='4030'>0.25364E+02</wgt>
<wgt id='4031'>0.25410E+02</wgt>
<wgt id='4032'>0.25610E+02</wgt>
<wgt id='4033'>0.25654E+02</wgt>
<wgt id='4034'>0.25155E+02</wgt>
<wgt id='4035'>0.24864E+02</wgt>
<wgt id='4036'>0.26045E+02</wgt>
<wgt id='4037'>0.24651E+02</wgt>
<wgt id='4038'>0.26788E+02</wgt>
<wgt id='4039'>0.25042E+02</wgt>
<wgt id='4040'>0.25926E+02</wgt>
<wgt id='4041'>0.25787E+02</wgt>
<wgt id='4042'>0.25073E+02</wgt>
<wgt id='4043'>0.25550E+02</wgt>
<wgt id='4044'>0.25102E+02</wgt>
<wgt id='4045'>0.26257E+02</wgt>
<wgt id='4046'>0.25407E+02</wgt>
<wgt id='4047'>0.25617E+02</wgt>
<wgt id='4048'>0.26414E+02</wgt>
<wgt id='4049'>0.26296E+02</wgt>
<wgt id='4050'>0.26102E+02</wgt>
<wgt id='4051'>0.25608E+02</wgt>
<wgt id='4052'>0.25567E+02</wgt>
<wgt id='4053'>0.24277E+02</wgt>
<wgt id='4054'>0.25751E+02</wgt>
<wgt id='4055'>0.25377E+02</wgt>
<wgt id='4056'>0.25661E+02</wgt>
<wgt id='4060'>0.24299E+02</wgt>
<wgt id='4070'>0.26916E+02</wgt>
<wgt id='4080'>0.33019E+02</wgt>
<wgt id='6000'>0.24137E+02</wgt>
<wgt id='6001'>0.24160E+02</wgt>
<wgt id='6002'>0.24113E+02</wgt>
<wgt id='6003'>0.24148E+02</wgt>
<wgt id='6004'>0.24130E+02</wgt>
<wgt id='6005'>0.24249E+02</wgt>
<wgt id='6006'>0.24032E+02</wgt>
<wgt id='6007'>0.24088E+02</wgt>
<wgt id='6008'>0.24194E+02</wgt>
<wgt id='6009'>0.24194E+02</wgt>
<wgt id='6010'>0.24082E+02</wgt>
<wgt id='6011'>0.24160E+02</wgt>
<wgt id='6012'>0.24086E+02</wgt>
<wgt id='6013'>0.24125E+02</wgt>
<wgt id='6014'>0.24158E+02</wgt>
<wgt id='6015'>0.24127E+02</wgt>
<wgt id='6016'>0.24144E+02</wgt>
<wgt id='6017'>0.24002E+02</wgt>
<wgt id='6018'>0.24298E+02</wgt>
<wgt id='6019'>0.24126E+02</wgt>
<wgt id='6020'>0.24147E+02</wgt>
<wgt id='6021'>0.24048E+02</wgt>
<wgt id='6022'>0.24255E+02</wgt>
<wgt id='6023'>0.23935E+02</wgt>
<wgt id='6024'>0.24269E+02</wgt>
<wgt id='6025'>0.24495E+02</wgt>
<wgt id='6026'>0.23756E+02</wgt>
<wgt id='6027'>0.24138E+02</wgt>
<wgt id='6028'>0.24146E+02</wgt>
<wgt id='6029'>0.23823E+02</wgt>
<wgt id='6030'>0.24526E+02</wgt>
<wgt id='6031'>0.23544E+02</wgt>
<wgt id='6032'>0.24841E+02</wgt>
<wgt id='6033'>0.24374E+02</wgt>
<wgt id='6034'>0.23911E+02</wgt>
<wgt id='6035'>0.24250E+02</wgt>
<wgt id='6036'>0.23890E+02</wgt>
<wgt id='6037'>0.24140E+02</wgt>
<wgt id='6038'>0.24120E+02</wgt>
<wgt id='6039'>0.23997E+02</wgt>
<wgt id='6040'>0.24298E+02</wgt>
<wgt id='6041'>0.23791E+02</wgt>
<wgt id='6042'>0.24541E+02</wgt>
<wgt id='6043'>0.24320E+02</wgt>
<wgt id='6044'>0.24117E+02</wgt>
<wgt id='6045'>0.24064E+02</wgt>
<wgt id='6046'>0.24328E+02</wgt>
<wgt id='6047'>0.23716E+02</wgt>
<wgt id='6048'>0.24871E+02</wgt>
<wgt id='6049'>0.23846E+02</wgt>
<wgt id='6050'>0.24299E+02</wgt>
<wgt id='7000'>0.23999E+02</wgt>
<wgt id='7001'>0.24001E+02</wgt>
<wgt id='7002'>0.23997E+02</wgt>
<wgt id='7003'>0.24090E+02</wgt>
<wgt id='7004'>0.23910E+02</wgt>
<wgt id='7005'>0.24047E+02</wgt>
<wgt id='7006'>0.23979E+02</wgt>
<wgt id='7007'>0.23991E+02</wgt>
<wgt id='7008'>0.24005E+02</wgt>
<wgt id='7009'>0.24038E+02</wgt>
<wgt id='7010'>0.23961E+02</wgt>
<wgt id='7011'>0.23875E+02</wgt>
<wgt id='7012'>0.24051E+02</wgt>
<wgt id='7013'>0.23988E+02</wgt>
<wgt id='7014'>0.24012E+02</wgt>
<wgt id='7015'>0.23976E+02</wgt>
<wgt id='7016'>0.24022E+02</wgt>
<wgt id='7017'>0.23793E+02</wgt>
<wgt id='7018'>0.24113E+02</wgt>
<wgt id='7019'>0.23987E+02</wgt>
<wgt id='7020'>0.24014E+02</wgt>
<wgt id='7021'>0.24029E+02</wgt>
<wgt id='7022'>0.23977E+02</wgt>
<wgt id='7023'>0.24058E+02</wgt>
<wgt id='7024'>0.23935E+02</wgt>
<wgt id='7025'>0.24029E+02</wgt>
<wgt id='7026'>0.23917E+02</wgt>
<wgt id='7027'>0.23945E+02</wgt>
<wgt id='7028'>0.24048E+02</wgt>
<wgt id='7029'>0.24338E+02</wgt>
<wgt id='7030'>0.23153E+02</wgt>
<wgt id='7031'>0.23707E+02</wgt>
<wgt id='7032'>0.24632E+02</wgt>
<wgt id='7033'>0.24127E+02</wgt>
<wgt id='7034'>0.23773E+02</wgt>
<wgt id='7035'>0.23556E+02</wgt>
<wgt id='7036'>0.24218E+02</wgt>
<wgt id='7037'>0.23978E+02</wgt>
<wgt id='7038'>0.24052E+02</wgt>
<wgt id='7039'>0.23793E+02</wgt>
<wgt id='7040'>0.24156E+02</wgt>
<wgt id='7041'>0.24438E+02</wgt>
<wgt id='7042'>0.23363E+02</wgt>
<wgt id='7043'>0.24037E+02</wgt>
<wgt id='7044'>0.23789E+02</wgt>
<wgt id='7045'>0.24255E+02</wgt>
<wgt id='7046'>0.23794E+02</wgt>
<wgt id='7047'>0.23912E+02</wgt>
<wgt id='7048'>0.24036E+02</wgt>
<wgt id='7049'>0.24416E+02</wgt>
<wgt id='7050'>0.23690E+02</wgt>
<wgt id='7060'>0.40624E+02</wgt>
<wgt id='8000'>0.21365E+02</wgt>
<wgt id='8001'>0.21361E+02</wgt>
<wgt id='8002'>0.21371E+02</wgt>
<wgt id='8003'>0.21364E+02</wgt>
<wgt id='8004'>0.21364E+02</wgt>
<wgt id='8005'>0.21323E+02</wgt>
<wgt id='8006'>0.21391E+02</wgt>
<wgt id='8007'>0.21404E+02</wgt>
<wgt id='8008'>0.21402E+02</wgt>
<wgt id='8009'>0.21446E+02</wgt>
<wgt id='8010'>0.21342E+02</wgt>
<wgt id='8011'>0.21381E+02</wgt>
<wgt id='8012'>0.21302E+02</wgt>
<wgt id='8013'>0.21322E+02</wgt>
<wgt id='8014'>0.21415E+02</wgt>
<wgt id='8015'>0.21347E+02</wgt>
<wgt id='8016'>0.21416E+02</wgt>
<wgt id='8017'>0.21417E+02</wgt>
<wgt id='8018'>0.21480E+02</wgt>
<wgt id='8019'>0.21233E+02</wgt>
<wgt id='8020'>0.21580E+02</wgt>
<wgt id='8021'>0.21289E+02</wgt>
<wgt id='8022'>0.21752E+02</wgt>
<wgt id='8023'>0.21208E+02</wgt>
<wgt id='8024'>0.21087E+02</wgt>
<wgt id='8025'>0.21095E+02</wgt>
<wgt id='8026'>0.21320E+02</wgt>
<wgt id='8027'>0.21444E+02</wgt>
<wgt id='8028'>0.21360E+02</wgt>
<wgt id='8029'>0.22525E+02</wgt>
<wgt id='8500'>0.24801E+02</wgt>
<wgt id='8501'>0.24390E+02</wgt>
<wgt id='8502'>0.24740E+02</wgt>
<wgt id='8503'>0.24889E+02</wgt>
<wgt id='8504'>0.24670E+02</wgt>
<wgt id='8505'>0.24884E+02</wgt>
<wgt id='8506'>0.24713E+02</wgt>
<wgt id='8507'>0.24786E+02</wgt>
<wgt id='8508'>0.24494E+02</wgt>
<wgt id='8509'>0.24855E+02</wgt>
<wgt id='8510'>0.24451E+02</wgt>
<wgt id='8511'>0.24590E+02</wgt>
<wgt id='8512'>0.25205E+02</wgt>
<wgt id='8513'>0.25125E+02</wgt>
<wgt id='8514'>0.25042E+02</wgt>
<wgt id='8515'>0.24874E+02</wgt>
<wgt id='8516'>0.24697E+02</wgt>
<wgt id='8517'>0.25177E+02</wgt>
<wgt id='8518'>0.24960E+02</wgt>
<wgt id='8519'>0.25056E+02</wgt>
<wgt id='8520'>0.23970E+02</wgt>
<wgt id='8521'>0.24623E+02</wgt>
<wgt id='8522'>0.25357E+02</wgt>
<wgt id='8523'>0.24380E+02</wgt>
<wgt id='8524'>0.24920E+02</wgt>
<wgt id='8525'>0.24851E+02</wgt>
<wgt id='8526'>0.24718E+02</wgt>
<wgt id='8527'>0.24826E+02</wgt>
<wgt id='8528'>0.24710E+02</wgt>
<wgt id='8529'>0.24773E+02</wgt>
<wgt id='8530'>0.24803E+02</wgt>
<wgt id='8531'>0.24799E+02</wgt>
<wgt id='8532'>0.24767E+02</wgt>
<wgt id='8533'>0.24705E+02</wgt>
<wgt id='8534'>0.24785E+02</wgt>
<wgt id='8535'>0.24877E+02</wgt>
<wgt id='8536'>0.24685E+02</wgt>
<wgt id='8537'>0.24795E+02</wgt>
<wgt id='8538'>0.24792E+02</wgt>
<wgt id='8539'>0.24797E+02</wgt>
<wgt id='8540'>0.24838E+02</wgt>
<wgt id='8541'>0.24830E+02</wgt>
<wgt id='8542'>0.24768E+02</wgt>
<wgt id='8543'>0.24747E+02</wgt>
<wgt id='8544'>0.24844E+02</wgt>
<wgt id='8545'>0.24815E+02</wgt>
<wgt id='8546'>0.24864E+02</wgt>
<wgt id='8547'>0.24754E+02</wgt>
<wgt id='8548'>0.24748E+02</wgt>
<wgt id='8549'>0.24818E+02</wgt>
<wgt id='8550'>0.24796E+02</wgt>
<wgt id='8551'>0.24825E+02</wgt>
<wgt id='8552'>0.24766E+02</wgt>
<wgt id='8553'>0.24746E+02</wgt>
<wgt id='8554'>0.24794E+02</wgt>
<wgt id='8555'>0.24803E+02</wgt>
<wgt id='8556'>0.24784E+02</wgt>
<wgt id='8557'>0.24812E+02</wgt>
<wgt id='8558'>0.24824E+02</wgt>
<wgt id='8559'>0.24794E+02</wgt>
<wgt id='8560'>0.24786E+02</wgt>
<wgt id='8561'>0.24820E+02</wgt>
<wgt id='8562'>0.24796E+02</wgt>
<wgt id='8563'>0.24804E+02</wgt>
<wgt id='8564'>0.24803E+02</wgt>
<wgt id='8565'>0.24828E+02</wgt>
<wgt id='8566'>0.24841E+02</wgt>
<wgt id='8567'>0.24817E+02</wgt>
<wgt id='8568'>0.24819E+02</wgt>
<wgt id='8569'>0.24817E+02</wgt>
<wgt id='8570'>0.24795E+02</wgt>
<wgt id='8571'>0.24766E+02</wgt>
<wgt id='8572'>0.24779E+02</wgt>
<wgt id='8573'>0.24773E+02</wgt>
<wgt id='8574'>0.24796E+02</wgt>
<wgt id='8575'>0.24780E+02</wgt>
<wgt id='8576'>0.24811E+02</wgt>
<wgt id='8577'>0.24771E+02</wgt>
<wgt id='8578'>0.24813E+02</wgt>
<wgt id='8579'>0.24837E+02</wgt>
<wgt id='8580'>0.24781E+02</wgt>
<wgt id='8581'>0.24816E+02</wgt>
<wgt id='8582'>0.24785E+02</wgt>
<wgt id='8583'>0.24811E+02</wgt>
<wgt id='8584'>0.24833E+02</wgt>
<wgt id='8585'>0.24812E+02</wgt>
<wgt id='8586'>0.24849E+02</wgt>
<wgt id='8587'>0.24808E+02</wgt>
<wgt id='8588'>0.24802E+02</wgt>
<wgt id='8589'>0.24805E+02</wgt>
<wgt id='8590'>0.24795E+02</wgt>
<wgt id='8591'>0.24783E+02</wgt>
<wgt id='8592'>0.24795E+02</wgt>
<wgt id='8593'>0.24786E+02</wgt>
<wgt id='8594'>0.24797E+02</wgt>
<wgt id='8595'>0.24796E+02</wgt>
<wgt id='8596'>0.24792E+02</wgt>
<wgt id='8597'>0.24813E+02</wgt>
<wgt id='8598'>0.24811E+02</wgt>
<wgt id='8599'>0.24808E+02</wgt>
<wgt id='8600'>0.24801E+02</wgt>
<wgt id='8601'>0.23981E+02</wgt>
<wgt id='8602'>0.25766E+02</wgt>
<wgt id='9000'>0.23911E+02</wgt>
<wgt id='9001'>0.24110E+02</wgt>
<wgt id='9002'>0.23770E+02</wgt>
<wgt id='9003'>0.24173E+02</wgt>
<wgt id='9004'>0.24115E+02</wgt>
<wgt id='9005'>0.24127E+02</wgt>
<wgt id='9006'>0.24010E+02</wgt>
<wgt id='9007'>0.23792E+02</wgt>
<wgt id='9008'>0.23768E+02</wgt>
<wgt id='9009'>0.24056E+02</wgt>
<wgt id='9010'>0.24094E+02</wgt>
<wgt id='9011'>0.23691E+02</wgt>
<wgt id='9012'>0.24111E+02</wgt>
<wgt id='9013'>0.24479E+02</wgt>
<wgt id='9014'>0.24019E+02</wgt>
<wgt id='9015'>0.23583E+02</wgt>
<wgt id='9016'>0.23572E+02</wgt>
<wgt id='9017'>0.24007E+02</wgt>
<wgt id='9018'>0.24119E+02</wgt>
<wgt id='9019'>0.24149E+02</wgt>
<wgt id='9020'>0.23496E+02</wgt>
<wgt id='9021'>0.23204E+02</wgt>
<wgt id='9022'>0.24099E+02</wgt>
<wgt id='9023'>0.23241E+02</wgt>
<wgt id='9024'>0.23669E+02</wgt>
<wgt id='9025'>0.23937E+02</wgt>
<wgt id='9026'>0.23731E+02</wgt>
<wgt id='9027'>0.23979E+02</wgt>
<wgt id='9028'>0.24032E+02</wgt>
<wgt id='9029'>0.23984E+02</wgt>
<wgt id='9030'>0.23938E+02</wgt>
<wgt id='9031'>0.23849E+02</wgt>
<wgt id='9032'>0.23939E+02</wgt>
<wgt id='9033'>0.23971E+02</wgt>
<wgt id='9034'>0.23960E+02</wgt>
<wgt id='9035'>0.23973E+02</wgt>
<wgt id='9036'>0.23937E+02</wgt>
<wgt id='9037'>0.23952E+02</wgt>
<wgt id='9038'>0.23969E+02</wgt>
<wgt id='9039'>0.23921E+02</wgt>
<wgt id='9040'>0.23846E+02</wgt>
<wgt id='9041'>0.23921E+02</wgt>
<wgt id='9042'>0.23995E+02</wgt>
<wgt id='9043'>0.23846E+02</wgt>
<wgt id='9044'>0.23941E+02</wgt>
<wgt id='9045'>0.23931E+02</wgt>
<wgt id='9046'>0.23863E+02</wgt>
<wgt id='9047'>0.23923E+02</wgt>
<wgt id='9048'>0.23937E+02</wgt>
<wgt id='9049'>0.23891E+02</wgt>
<wgt id='9050'>0.23908E+02</wgt>
<wgt id='9051'>0.23947E+02</wgt>
<wgt id='9052'>0.23960E+02</wgt>
<wgt id='9053'>0.23928E+02</wgt>
<wgt id='9054'>0.23880E+02</wgt>
<wgt id='9055'>0.23895E+02</wgt>
<wgt id='9056'>0.23916E+02</wgt>
<wgt id='9057'>0.23902E+02</wgt>
<wgt id='9058'>0.23884E+02</wgt>
<wgt id='9059'>0.23896E+02</wgt>
<wgt id='9060'>0.23916E+02</wgt>
<wgt id='9061'>0.23896E+02</wgt>
<wgt id='9062'>0.23923E+02</wgt>
<wgt id='9063'>0.23916E+02</wgt>
<wgt id='9064'>0.23930E+02</wgt>
<wgt id='9065'>0.23892E+02</wgt>
<wgt id='9066'>0.23893E+02</wgt>
<wgt id='9067'>0.23891E+02</wgt>
<wgt id='9068'>0.23912E+02</wgt>
<wgt id='9069'>0.23942E+02</wgt>
<wgt id='9070'>0.23905E+02</wgt>
<wgt id='9071'>0.23918E+02</wgt>
<wgt id='9072'>0.23923E+02</wgt>
<wgt id='9073'>0.23907E+02</wgt>
<wgt id='9074'>0.23928E+02</wgt>
<wgt id='9075'>0.23913E+02</wgt>
<wgt id='9076'>0.23909E+02</wgt>
<wgt id='9077'>0.23924E+02</wgt>
<wgt id='9078'>0.23928E+02</wgt>
<wgt id='9079'>0.23893E+02</wgt>
<wgt id='9080'>0.23939E+02</wgt>
<wgt id='9081'>0.23910E+02</wgt>
<wgt id='9082'>0.23912E+02</wgt>
<wgt id='9083'>0.23905E+02</wgt>
<wgt id='9084'>0.23885E+02</wgt>
<wgt id='9085'>0.23883E+02</wgt>
<wgt id='9086'>0.23925E+02</wgt>
<wgt id='9087'>0.23871E+02</wgt>
<wgt id='9088'>0.23893E+02</wgt>
<wgt id='9089'>0.23898E+02</wgt>
<wgt id='9090'>0.23921E+02</wgt>
<wgt id='9091'>0.23900E+02</wgt>
<wgt id='9092'>0.23904E+02</wgt>
<wgt id='9093'>0.23899E+02</wgt>
<wgt id='9094'>0.23896E+02</wgt>
<wgt id='9095'>0.23910E+02</wgt>
<wgt id='9096'>0.23903E+02</wgt>
<wgt id='9097'>0.23915E+02</wgt>
<wgt id='9098'>0.23908E+02</wgt>
<wgt id='9099'>0.23900E+02</wgt>
<wgt id='9100'>0.23911E+02</wgt>
<wgt id='9101'>0.22987E+02</wgt>
<wgt id='9102'>0.24960E+02</wgt>
<wgt id='10000'>0.24803E+02</wgt>
<wgt id='10001'>0.24495E+02</wgt>
<wgt id='10002'>0.24409E+02</wgt>
<wgt id='10003'>0.24695E+02</wgt>
<wgt id='10004'>0.24742E+02</wgt>
<wgt id='10005'>0.24307E+02</wgt>
<wgt id='10006'>0.24245E+02</wgt>
<wgt id='10007'>0.24784E+02</wgt>
<wgt id='10008'>0.24512E+02</wgt>
<wgt id='10009'>0.24623E+02</wgt>
<wgt id='10010'>0.24679E+02</wgt>
<wgt id='10011'>0.24516E+02</wgt>
<wgt id='10012'>0.24551E+02</wgt>
<wgt id='10013'>0.24866E+02</wgt>
<wgt id='10014'>0.24843E+02</wgt>
<wgt id='10015'>0.24923E+02</wgt>
<wgt id='10016'>0.24872E+02</wgt>
<wgt id='10017'>0.24890E+02</wgt>
<wgt id='10018'>0.24946E+02</wgt>
<wgt id='10019'>0.24154E+02</wgt>
<wgt id='10020'>0.24871E+02</wgt>
<wgt id='10021'>0.24728E+02</wgt>
<wgt id='10022'>0.25534E+02</wgt>
<wgt id='10023'>0.24796E+02</wgt>
<wgt id='10024'>0.24777E+02</wgt>
<wgt id='10025'>0.24784E+02</wgt>
<wgt id='10026'>0.24713E+02</wgt>
<wgt id='10027'>0.24753E+02</wgt>
<wgt id='10028'>0.24627E+02</wgt>
<wgt id='10029'>0.24847E+02</wgt>
<wgt id='10030'>0.24812E+02</wgt>
<wgt id='10031'>0.23981E+02</wgt>
<wgt id='10032'>0.25766E+02</wgt>
<wgt id='11000'>0.23912E+02</wgt>
<wgt id='11001'>0.23902E+02</wgt>
<wgt id='11002'>0.23675E+02</wgt>
<wgt id='11003'>0.23992E+02</wgt>
<wgt id='11004'>0.23473E+02</wgt>
<wgt id='11005'>0.25043E+02</wgt>
<wgt id='11006'>0.23924E+02</wgt>
<wgt id='11007'>0.24003E+02</wgt>
<wgt id='11008'>0.23963E+02</wgt>
<wgt id='11009'>0.23981E+02</wgt>
<wgt id='11010'>0.23792E+02</wgt>
<wgt id='11011'>0.23848E+02</wgt>
<wgt id='11012'>0.23795E+02</wgt>
<wgt id='11013'>0.23887E+02</wgt>
<wgt id='11014'>0.23809E+02</wgt>
<wgt id='11015'>0.23649E+02</wgt>
<wgt id='11016'>0.24018E+02</wgt>
<wgt id='11017'>0.24043E+02</wgt>
<wgt id='11018'>0.23921E+02</wgt>
<wgt id='11019'>0.24051E+02</wgt>
<wgt id='11020'>0.23973E+02</wgt>
<wgt id='11021'>0.24013E+02</wgt>
<wgt id='11022'>0.23805E+02</wgt>
<wgt id='11023'>0.23959E+02</wgt>
<wgt id='11024'>0.23753E+02</wgt>
<wgt id='11025'>0.23780E+02</wgt>
<wgt id='11026'>0.23927E+02</wgt>
<wgt id='11027'>0.24093E+02</wgt>
<wgt id='11028'>0.23861E+02</wgt>
<wgt id='11029'>0.23245E+02</wgt>
<wgt id='11030'>0.23895E+02</wgt>
<wgt id='11031'>0.22987E+02</wgt>
<wgt id='11032'>0.24960E+02</wgt>
<wgt id='12000'>0.17288E+02</wgt>
<wgt id='12001'>0.17271E+02</wgt>
<wgt id='12002'>0.17305E+02</wgt>
<wgt id='12003'>0.17300E+02</wgt>
<wgt id='12004'>0.17276E+02</wgt>
<wgt id='12005'>0.17275E+02</wgt>
<wgt id='12006'>0.17302E+02</wgt>
<wgt id='12007'>0.17343E+02</wgt>
<wgt id='12008'>0.17234E+02</wgt>
<wgt id='12009'>0.17262E+02</wgt>
<wgt id='12010'>0.17317E+02</wgt>
<wgt id='12011'>0.17235E+02</wgt>
<wgt id='12012'>0.17347E+02</wgt>
<wgt id='12013'>0.17326E+02</wgt>
<wgt id='12014'>0.17251E+02</wgt>
<wgt id='12015'>0.17372E+02</wgt>
<wgt id='12016'>0.17206E+02</wgt>
<wgt id='12017'>0.17319E+02</wgt>
<wgt id='12018'>0.17266E+02</wgt>
<wgt id='12019'>0.17550E+02</wgt>
<wgt id='12020'>0.17044E+02</wgt>
<wgt id='12021'>0.17327E+02</wgt>
<wgt id='12022'>0.17255E+02</wgt>
<wgt id='12023'>0.17126E+02</wgt>
<wgt id='12024'>0.17495E+02</wgt>
<wgt id='12025'>0.17065E+02</wgt>
<wgt id='12026'>0.17508E+02</wgt>
<wgt id='12027'>0.17565E+02</wgt>
<wgt id='12028'>0.17073E+02</wgt>
<wgt id='12050'>0.17288E+02</wgt>
<wgt id='12051'>0.17389E+02</wgt>
<wgt id='12052'>0.17155E+02</wgt>
<wgt id='12053'>0.17395E+02</wgt>
<wgt id='12054'>0.17200E+02</wgt>
<wgt id='12055'>0.16909E+02</wgt>
<wgt id='12056'>0.18061E+02</wgt>
<wgt id='12057'>0.17325E+02</wgt>
<wgt id='12058'>0.17274E+02</wgt>
<wgt id='12059'>0.17435E+02</wgt>
<wgt id='12060'>0.17157E+02</wgt>
<wgt id='12061'>0.17261E+02</wgt>
<wgt id='12062'>0.17224E+02</wgt>
<wgt id='12063'>0.17729E+02</wgt>
<wgt id='13000'>0.20558E+02</wgt>
<wgt id='13001'>0.20537E+02</wgt>
<wgt id='13002'>0.20574E+02</wgt>
<wgt id='13003'>0.20561E+02</wgt>
<wgt id='13004'>0.20550E+02</wgt>
<wgt id='13005'>0.20560E+02</wgt>
<wgt id='13006'>0.20552E+02</wgt>
<wgt id='13007'>0.20648E+02</wgt>
<wgt id='13008'>0.20465E+02</wgt>
<wgt id='13009'>0.20477E+02</wgt>
<wgt id='13010'>0.20638E+02</wgt>
<wgt id='13011'>0.20618E+02</wgt>
<wgt id='13012'>0.20497E+02</wgt>
<wgt id='13013'>0.20579E+02</wgt>
<wgt id='13014'>0.20533E+02</wgt>
<wgt id='13015'>0.20645E+02</wgt>
<wgt id='13016'>0.20448E+02</wgt>
<wgt id='13017'>0.20454E+02</wgt>
<wgt id='13018'>0.20663E+02</wgt>
<wgt id='13019'>0.20815E+02</wgt>
<wgt id='13020'>0.20308E+02</wgt>
<wgt id='13021'>0.21135E+02</wgt>
<wgt id='13022'>0.20030E+02</wgt>
<wgt id='13023'>0.20089E+02</wgt>
<wgt id='13024'>0.21032E+02</wgt>
<wgt id='13025'>0.20042E+02</wgt>
<wgt id='13026'>0.21061E+02</wgt>
<wgt id='13027'>0.20325E+02</wgt>
<wgt id='13028'>0.20816E+02</wgt>
<wgt id='13050'>0.20558E+02</wgt>
<wgt id='13051'>0.20645E+02</wgt>
<wgt id='13052'>0.20325E+02</wgt>
<wgt id='13053'>0.20675E+02</wgt>
<wgt id='13054'>0.20519E+02</wgt>
<wgt id='13055'>0.19224E+02</wgt>
<wgt id='13056'>0.21582E+02</wgt>
<wgt id='13057'>0.20602E+02</wgt>
<wgt id='13058'>0.20518E+02</wgt>
<wgt id='13059'>0.20909E+02</wgt>
<wgt id='13060'>0.19089E+02</wgt>
<wgt id='13061'>0.20837E+02</wgt>
<wgt id='13062'>0.20202E+02</wgt>
<wgt id='13063'>0.21412E+02</wgt>
<wgt id='14000'>0.25376E+02</wgt>
<wgt id='14001'>0.25373E+02</wgt>
<wgt id='14002'>0.25370E+02</wgt>
<wgt id='14003'>0.25368E+02</wgt>
<wgt id='14004'>0.25365E+02</wgt>
<wgt id='14005'>0.25362E+02</wgt>
<wgt id='14006'>0.25360E+02</wgt>
<wgt id='14007'>0.25357E+02</wgt>
<wgt id='14008'>0.25355E+02</wgt>
<wgt id='14009'>0.25352E+02</wgt>
<wgt id='14010'>0.25349E+02</wgt>
<wgt id='14011'>0.25347E+02</wgt>
<wgt id='14012'>0.25344E+02</wgt>
<wgt id='14013'>0.25341E+02</wgt>
<wgt id='14014'>0.25339E+02</wgt>
<wgt id='14015'>0.25336E+02</wgt>
<wgt id='14016'>0.25333E+02</wgt>
<wgt id='14017'>0.25331E+02</wgt>
<wgt id='14018'>0.25328E+02</wgt>
<wgt id='14019'>0.25326E+02</wgt>
<wgt id='14020'>0.25323E+02</wgt>
<wgt id='14021'>0.25320E+02</wgt>
<wgt id='14022'>0.25318E+02</wgt>
<wgt id='14023'>0.25315E+02</wgt>
<wgt id='14024'>0.25312E+02</wgt>
<wgt id='14025'>0.25310E+02</wgt>
<wgt id='14026'>0.25307E+02</wgt>
<wgt id='14027'>0.25305E+02</wgt>
<wgt id='14028'>0.25302E+02</wgt>
<wgt id='14029'>0.25299E+02</wgt>
<wgt id='14030'>0.25297E+02</wgt>
<wgt id='15000'>0.23634E+02</wgt>
<wgt id='15001'>0.23832E+02</wgt>
<wgt id='15002'>0.23495E+02</wgt>
<wgt id='15003'>0.23893E+02</wgt>
<wgt id='15004'>0.23836E+02</wgt>
<wgt id='15005'>0.23848E+02</wgt>
<wgt id='15006'>0.23731E+02</wgt>
<wgt id='15007'>0.23515E+02</wgt>
<wgt id='15008'>0.23493E+02</wgt>
<wgt id='15009'>0.23778E+02</wgt>
<wgt id='15010'>0.23815E+02</wgt>
<wgt id='15011'>0.23415E+02</wgt>
<wgt id='15012'>0.23831E+02</wgt>
<wgt id='15013'>0.24194E+02</wgt>
<wgt id='15014'>0.23740E+02</wgt>
<wgt id='15015'>0.23312E+02</wgt>
<wgt id='15016'>0.23297E+02</wgt>
<wgt id='15017'>0.23729E+02</wgt>
<wgt id='15018'>0.23841E+02</wgt>
<wgt id='15019'>0.23868E+02</wgt>
<wgt id='15020'>0.23223E+02</wgt>
<wgt id='15021'>0.22936E+02</wgt>
<wgt id='15022'>0.23821E+02</wgt>
<wgt id='15023'>0.22970E+02</wgt>
<wgt id='15024'>0.23395E+02</wgt>
<wgt id='15025'>0.23662E+02</wgt>
<wgt id='15026'>0.23457E+02</wgt>
<wgt id='15027'>0.23700E+02</wgt>
<wgt id='15028'>0.23753E+02</wgt>
<wgt id='15029'>0.23708E+02</wgt>
<wgt id='15030'>0.23662E+02</wgt>
<wgt id='15031'>0.23572E+02</wgt>
<wgt id='15032'>0.23663E+02</wgt>
<wgt id='15033'>0.23694E+02</wgt>
<wgt id='15034'>0.23683E+02</wgt>
<wgt id='15035'>0.23696E+02</wgt>
<wgt id='15036'>0.23659E+02</wgt>
<wgt id='15037'>0.23675E+02</wgt>
<wgt id='15038'>0.23692E+02</wgt>
<wgt id='15039'>0.23645E+02</wgt>
<wgt id='15040'>0.23570E+02</wgt>
<wgt id='15041'>0.23644E+02</wgt>
<wgt id='15042'>0.23717E+02</wgt>
<wgt id='15043'>0.23569E+02</wgt>
<wgt id='15044'>0.23664E+02</wgt>
<wgt id='15045'>0.23654E+02</wgt>
<wgt id='15046'>0.23586E+02</wgt>
<wgt id='15047'>0.23647E+02</wgt>
<wgt id='15048'>0.23659E+02</wgt>
<wgt id='15049'>0.23614E+02</wgt>
<wgt id='15050'>0.23631E+02</wgt>
<wgt id='15051'>0.23670E+02</wgt>
<wgt id='15052'>0.23683E+02</wgt>
<wgt id='15053'>0.23652E+02</wgt>
<wgt id='15054'>0.23603E+02</wgt>
<wgt id='15055'>0.23618E+02</wgt>
<wgt id='15056'>0.23640E+02</wgt>
<wgt id='15057'>0.23625E+02</wgt>
<wgt id='15058'>0.23607E+02</wgt>
<wgt id='15059'>0.23619E+02</wgt>
<wgt id='15060'>0.23639E+02</wgt>
<wgt id='15061'>0.23620E+02</wgt>
<wgt id='15062'>0.23647E+02</wgt>
<wgt id='15063'>0.23640E+02</wgt>
<wgt id='15064'>0.23652E+02</wgt>
<wgt id='15065'>0.23616E+02</wgt>
<wgt id='15066'>0.23617E+02</wgt>
<wgt id='15067'>0.23615E+02</wgt>
<wgt id='15068'>0.23635E+02</wgt>
<wgt id='15069'>0.23666E+02</wgt>
<wgt id='15070'>0.23628E+02</wgt>
<wgt id='15071'>0.23641E+02</wgt>
<wgt id='15072'>0.23646E+02</wgt>
<wgt id='15073'>0.23630E+02</wgt>
<wgt id='15074'>0.23651E+02</wgt>
<wgt id='15075'>0.23636E+02</wgt>
<wgt id='15076'>0.23632E+02</wgt>
<wgt id='15077'>0.23647E+02</wgt>
<wgt id='15078'>0.23651E+02</wgt>
<wgt id='15079'>0.23616E+02</wgt>
<wgt id='15080'>0.23662E+02</wgt>
<wgt id='15081'>0.23633E+02</wgt>
<wgt id='15082'>0.23635E+02</wgt>
<wgt id='15083'>0.23628E+02</wgt>
<wgt id='15084'>0.23609E+02</wgt>
<wgt id='15085'>0.23606E+02</wgt>
<wgt id='15086'>0.23647E+02</wgt>
<wgt id='15087'>0.23595E+02</wgt>
<wgt id='15088'>0.23617E+02</wgt>
<wgt id='15089'>0.23621E+02</wgt>
<wgt id='15090'>0.23644E+02</wgt>
<wgt id='15091'>0.23624E+02</wgt>
<wgt id='15092'>0.23628E+02</wgt>
<wgt id='15093'>0.23623E+02</wgt>
<wgt id='15094'>0.23620E+02</wgt>
<wgt id='15095'>0.23633E+02</wgt>
<wgt id='15096'>0.23626E+02</wgt>
<wgt id='15097'>0.23638E+02</wgt>
<wgt id='15098'>0.23631E+02</wgt>
<wgt id='15099'>0.23623E+02</wgt>
<wgt id='15100'>0.23634E+02</wgt>
<wgt id='15101'>0.23634E+02</wgt>
<wgt id='15102'>0.23632E+02</wgt>
<wgt id='15103'>0.23634E+02</wgt>
<wgt id='15104'>0.23634E+02</wgt>
<wgt id='15105'>0.23635E+02</wgt>
<wgt id='15106'>0.23634E+02</wgt>
<wgt id='15107'>0.23633E+02</wgt>
<wgt id='1500'>0.24855E+02</wgt>
<wgt id='1501'>0.23564E+02</wgt>
<wgt id='1502'>0.25597E+02</wgt>
<wgt id='1503'>0.23324E+02</wgt>
<wgt id='1504'>0.24402E+02</wgt>
<wgt id='1505'>0.23264E+02</wgt>
<wgt id='1506'>0.25733E+02</wgt>
<wgt id='1507'>0.24713E+02</wgt>
<wgt id='1508'>0.25286E+02</wgt>
<wgt id='1509'>0.24529E+02</wgt>
<wgt id='1510'>0.22970E+02</wgt>
<wgt id='1511'>0.26307E+02</wgt>
<wgt id='1512'>0.24786E+02</wgt>
<wgt id='1513'>0.26396E+02</wgt>
<wgt id='1514'>0.26358E+02</wgt>
<wgt id='1515'>0.26045E+02</wgt>
<wgt id='1516'>0.24560E+02</wgt>
<wgt id='1517'>0.27640E+02</wgt>
<wgt id='1518'>0.25428E+02</wgt>
<wgt id='1519'>0.24568E+02</wgt>
<wgt id='1520'>0.23944E+02</wgt>
<wgt id='1521'>0.24767E+02</wgt>
<wgt id='1522'>0.22850E+02</wgt>
<wgt id='1523'>0.23463E+02</wgt>
<wgt id='1524'>0.21881E+02</wgt>
<wgt id='1525'>0.25001E+02</wgt>
<wgt id='1526'>0.24575E+02</wgt>
<wgt id='1527'>0.27828E+02</wgt>
<wgt id='1528'>0.26639E+02</wgt>
<wgt id='1529'>0.25631E+02</wgt>
<wgt id='1530'>0.24078E+02</wgt>
<wgt id='1531'>0.24064E+02</wgt>
<wgt id='1532'>0.24982E+02</wgt>
<wgt id='1533'>0.24728E+02</wgt>
<wgt id='1534'>0.23857E+02</wgt>
<wgt id='1535'>0.25911E+02</wgt>
<wgt id='1536'>0.24508E+02</wgt>
<wgt id='1537'>0.26730E+02</wgt>
<wgt id='1538'>0.24056E+02</wgt>
<wgt id='1539'>0.24125E+02</wgt>
<wgt id='1540'>0.24315E+02</wgt>
<wgt id='1541'>0.23714E+02</wgt>
<wgt id='1542'>0.25554E+02</wgt>
<wgt id='1543'>0.22979E+02</wgt>
<wgt id='1544'>0.23299E+02</wgt>
<wgt id='1545'>0.22780E+02</wgt>
<wgt id='1546'>0.22543E+02</wgt>
<wgt id='1547'>0.25675E+02</wgt>
<wgt id='1548'>0.25354E+02</wgt>
<wgt id='1549'>0.25564E+02</wgt>
<wgt id='1550'>0.24878E+02</wgt>
<wgt id='1551'>0.24269E+02</wgt>
<wgt id='1552'>0.23589E+02</wgt>
<wgt id='1553'>0.24551E+02</wgt>
<wgt id='1554'>0.26250E+02</wgt>
<wgt id='1555'>0.24552E+02</wgt>
<wgt id='1556'>0.26083E+02</wgt>
<wgt id='1557'>0.25161E+02</wgt>
<wgt id='1558'>0.25017E+02</wgt>
<wgt id='1559'>0.25134E+02</wgt>
<wgt id='1560'>0.24208E+02</wgt>
<wgt id='1561'>0.25386E+02</wgt>
<wgt id='1562'>0.23508E+02</wgt>
<wgt id='1563'>0.26042E+02</wgt>
<wgt id='1564'>0.26338E+02</wgt>
<wgt id='1565'>0.24366E+02</wgt>
<wgt id='1566'>0.24849E+02</wgt>
<wgt id='1567'>0.23918E+02</wgt>
<wgt id='1568'>0.25335E+02</wgt>
<wgt id='1569'>0.25785E+02</wgt>
<wgt id='1570'>0.26079E+02</wgt>
<wgt id='1571'>0.22777E+02</wgt>
<wgt id='1572'>0.24760E+02</wgt>
<wgt id='1573'>0.25090E+02</wgt>
<wgt id='1574'>0.26026E+02</wgt>
<wgt id='1575'>0.24814E+02</wgt>
<wgt id='1576'>0.22882E+02</wgt>
<wgt id='1577'>0.24132E+02</wgt>
<wgt id='1578'>0.26574E+02</wgt>
<wgt id='1579'>0.24592E+02</wgt>
<wgt id='1580'>0.25142E+02</wgt>
<wgt id='1581'>0.24008E+02</wgt>
<wgt id='1582'>0.24484E+02</wgt>
<wgt id='1583'>0.26252E+02</wgt>
<wgt id='1584'>0.24770E+02</wgt>
<wgt id='1585'>0.24957E+02</wgt>
<wgt id='1586'>0.25657E+02</wgt>
<wgt id='1587'>0.25091E+02</wgt>
<wgt id='1588'>0.25776E+02</wgt>
<wgt id='1589'>0.25440E+02</wgt>
<wgt id='1590'>0.24731E+02</wgt>
<wgt id='1591'>0.24730E+02</wgt>
<wgt id='1592'>0.23709E+02</wgt>
<wgt id='1593'>0.25808E+02</wgt>
<wgt id='1594'>0.24921E+02</wgt>
<wgt id='1595'>0.27671E+02</wgt>
<wgt id='1596'>0.25003E+02</wgt>
<wgt id='1597'>0.24252E+02</wgt>
<wgt id='1598'>0.22740E+02</wgt>
<wgt id='1599'>0.26063E+02</wgt>
<wgt id='1600'>0.26071E+02</wgt>
<wgt id='1601'>0.24066E+02</wgt>
<wgt id='1602'>0.25418E+02</wgt>
<wgt id='1700'>0.23045E+02</wgt>
<wgt id='1800'>0.23359E+02</wgt>
<wgt id='1850'>0.29247E+02</wgt>
<wgt id='1900'>0.25793E+02</wgt>
<wgt id='1950'>0.28861E+02</wgt>
</rwgt>
</event>
<event>
      4   9999  2.16956E+01  6.05477E+00 -1.00000E+00  2.19481E-01
      21    -1     0     0   502   501  0.000000000E+00  0.000000000E+00  2.487300091E+03  2.487300091E+03  0.000000000E+00  0.00000E+00  9.000E+00
      21    -1     0     0   512   502  0.000000000E+00  0.000000000E+00 -2.948314230E+01  2.948314230E+01  0.000000000E+00  0.00000E+00  9.000E+00
      25     1     1     2     0     0 -6.053977504E+00  9.800487723E-02  2.485397243E+03  2.488546151E+03  1.250033244E+02  0.00000E+00  9.000E+00
      21     1     1     2   512   501  6.053977504E+00 -9.800487723E-02 -2.758029359E+01  2.823708277E+01  1.066240300E-06  0.00000E+00  9.000E+00
#rwgt            1           1   9.9642864379804514                1        1051           0
<rwgt>
<wgt id='1001'>0.21696E+02</wgt>
<wgt id='1002'>0.22440E+02</wgt>
<wgt id='1003'>0.20759E+02</wgt>
<wgt id='1004'>0.19911E+02</wgt>
<wgt id='1005'>0.20381E+02</wgt>
<wgt id='1006'>0.19253E+02</wgt>
<wgt id='1007'>0.23234E+02</wgt>
<wgt id='1008'>0.24419E+02</wgt>
<wgt id='1009'>0.21867E+02</wgt>
<wgt id='2000'>0.21696E+02</wgt>
<wgt id='2001'>0.21799E+02</wgt>
<wgt id='2002'>0.21301E+02</wgt>
<wgt id='2003'>0.21473E+02</wgt>
<wgt id='2004'>0.21723E+02</wgt>
<wgt id='2005'>0.21819E+02</wgt>
<wgt id='2006'>0.21560E+02</wgt>
<wgt id='2007'>0.21902E+02</wgt>
<wgt id='2008'>0.21659E+02</wgt>
<wgt id='2009'>0.21809E+02</wgt>
<wgt id='2010'>0.21744E+02</wgt>
<wgt id='2011'>0.21545E+02</wgt>
<wgt id='2012'>0.21530E+02</wgt>
<wgt id='2013'>0.21359E+02</wgt>
<wgt id='2014'>0.21486E+02</wgt>
<wgt id='2015'>0.21644E+02</wgt>
<wgt id='2016'>0.21729E+02</wgt>
<wgt id='2017'>0.21620E+02</wgt>
<wgt id='2018'>0.21567E+02</wgt>
<wgt id='2019'>0.21684E+02</wgt>
<wgt id='2020'>0.21474E+02</wgt>
<wgt id='2021'>0.21759E+02</wgt>
<wgt id='2022'>0.21442E+02</wgt>
<wgt id='2023'>0.21749E+02</wgt>
<wgt id='2024'>0.21490E+02</wgt>
<wgt id='2025'>0.21479E+02</wgt>
<wgt id='2026'>0.21842E+02</wgt>
<wgt id='2027'>0.21590E+02</wgt>
<wgt id='2028'>0.21584E+02</wgt>
<wgt id='2029'>0.22180E+02</wgt>
<wgt id='2030'>0.21730E+02</wgt>
<wgt id='2031'>0.21687E+02</wgt>
<wgt id='2032'>0.21786E+02</wgt>
<wgt id='2033'>0.21690E+02</wgt>
<wgt id='2034'>0.21903E+02</wgt>
<wgt id='2035'>0.21697E+02</wgt>
<wgt id='2036'>0.21520E+02</wgt>
<wgt id='2037'>0.22077E+02</wgt>
<wgt id='2038'>0.21906E+02</wgt>
<wgt id='2039'>0.21530E+02</wgt>
<wgt id='2040'>0.21344E+02</wgt>
<wgt id='2041'>0.21457E+02</wgt>
<wgt id='2042'>0.21756E+02</wgt>
<wgt id='2043'>0.22229E+02</wgt>
<wgt id='2044'>0.21921E+02</wgt>
<wgt id='2045'>0.21602E+02</wgt>
<wgt id='2046'>0.21307E+02</wgt>
<wgt id='2047'>0.21355E+02</wgt>
<wgt id='2048'>0.21743E+02</wgt>
<wgt id='2049'>0.21835E+02</wgt>
<wgt id='2050'>0.21286E+02</wgt>
<wgt id='2051'>0.21660E+02</wgt>
<wgt id='2052'>0.21828E+02</wgt>
<wgt id='2053'>0.21685E+02</wgt>
<wgt id='2054'>0.21632E+02</wgt>
<wgt id='2055'>0.21463E+02</wgt>
<wgt id='2056'>0.21818E+02</wgt>
<wgt id='2057'>0.21886E+02</wgt>
<wgt id='2058'>0.21694E+02</wgt>
<wgt id='2059'>0.21628E+02</wgt>
<wgt id='2060'>0.21458E+02</wgt>
<wgt id='2061'>0.21826E+02</wgt>
<wgt id='2062'>0.21719E+02</wgt>
<wgt id='2063'>0.21685E+02</wgt>
<wgt id='2064'>0.21878E+02</wgt>
<wgt id='2065'>0.21505E+02</wgt>
<wgt id='2066'>0.21922E+02</wgt>
<wgt id='2067'>0.21652E+02</wgt>
<wgt id='2068'>0.21672E+02</wgt>
<wgt id='2069'>0.21818E+02</wgt>
<wgt id='2070'>0.21409E+02</wgt>
<wgt id='2071'>0.21630E+02</wgt>
<wgt id='2072'>0.21744E+02</wgt>
<wgt id='2073'>0.21420E+02</wgt>
<wgt id='2074'>0.21529E+02</wgt>
<wgt id='2075'>0.21458E+02</wgt>
<wgt id='2076'>0.21957E+02</wgt>
<wgt id='2077'>0.21236E+02</wgt>
<wgt id='2078'>0.21828E+02</wgt>
<wgt id='2079'>0.21801E+02</wgt>
<wgt id='2080'>0.21851E+02</wgt>
<wgt id='2081'>0.21718E+02</wgt>
<wgt id='2082'>0.21842E+02</wgt>
<wgt id='2083'>0.21692E+02</wgt>
<wgt id='2084'>0.21590E+02</wgt>
<wgt id='2085'>0.21777E+02</wgt>
<wgt id='2086'>0.21735E+02</wgt>
<wgt id='2087'>0.21552E+02</wgt>
<wgt id='2088'>0.21697E+02</wgt>
<wgt id='2089'>0.21596E+02</wgt>
<wgt id='2090'>0.21727E+02</wgt>
<wgt id='2091'>0.21713E+02</wgt>
<wgt id='2092'>0.21654E+02</wgt>
<wgt id='2093'>0.21747E+02</wgt>
<wgt id='2094'>0.21717E+02</wgt>
<wgt id='2095'>0.21765E+02</wgt>
<wgt id='2096'>0.21646E+02</wgt>
<wgt id='2097'>0.21782E+02</wgt>
<wgt id='2098'>0.21602E+02</wgt>
<wgt id='2099'>0.21748E+02</wgt>
<wgt id='2100'>0.21680E+02</wgt>
<wgt id='2101'>0.20546E+02</wgt>
<wgt id='2102'>0.23120E+02</wgt>
<wgt id='2104'>0.16725E+02</wgt>
<wgt id='2105'>0.17757E+02</wgt>
<wgt id='2106'>0.18153E+02</wgt>
<wgt id='2107'>0.19392E+02</wgt>
<wgt id='2108'>0.21080E+02</wgt>
<wgt id='2109'>0.22153E+02</wgt>
<wgt id='2110'>0.24623E+02</wgt>
<wgt id='2111'>0.25947E+02</wgt>
<wgt id='3000'>0.24294E+02</wgt>
<wgt id='3001'>0.23950E+02</wgt>
<wgt id='3002'>0.24529E+02</wgt>
<wgt id='3003'>0.23879E+02</wgt>
<wgt id='3004'>0.24303E+02</wgt>
<wgt id='3005'>0.23958E+02</wgt>
<wgt id='3006'>0.24169E+02</wgt>
<wgt id='3007'>0.24365E+02</wgt>
<wgt id='3008'>0.24476E+02</wgt>
<wgt id='3009'>0.24435E+02</wgt>
<wgt id='3010'>0.24334E+02</wgt>
<wgt id='3011'>0.24108E+02</wgt>
<wgt id='3012'>0.24173E+02</wgt>
<wgt id='3013'>0.24600E+02</wgt>
<wgt id='3014'>0.24114E+02</wgt>
<wgt id='3015'>0.24206E+02</wgt>
<wgt id='3016'>0.24169E+02</wgt>
<wgt id='3017'>0.24187E+02</wgt>
<wgt id='3018'>0.24253E+02</wgt>
<wgt id='3019'>0.24627E+02</wgt>
<wgt id='3020'>0.24530E+02</wgt>
<wgt id='3021'>0.24506E+02</wgt>
<wgt id='3022'>0.24357E+02</wgt>
<wgt id='3023'>0.24402E+02</wgt>
<wgt id='3024'>0.24281E+02</wgt>
<wgt id='3025'>0.24404E+02</wgt>
<wgt id='3026'>0.24188E+02</wgt>
<wgt id='3027'>0.24318E+02</wgt>
<wgt id='3028'>0.24272E+02</wgt>
<wgt id='3029'>0.23813E+02</wgt>
<wgt id='3030'>0.24760E+02</wgt>
<wgt id='3031'>0.24564E+02</wgt>
<wgt id='3032'>0.24255E+02</wgt>
<wgt id='3033'>0.24196E+02</wgt>
<wgt id='3034'>0.24237E+02</wgt>
<wgt id='3035'>0.24497E+02</wgt>
<wgt id='3036'>0.24409E+02</wgt>
<wgt id='3037'>0.24215E+02</wgt>
<wgt id='3038'>0.24465E+02</wgt>
<wgt id='3039'>0.24612E+02</wgt>
<wgt id='3040'>0.24283E+02</wgt>
<wgt id='3041'>0.24382E+02</wgt>
<wgt id='3042'>0.24050E+02</wgt>
<wgt id='3043'>0.23943E+02</wgt>
<wgt id='3044'>0.24244E+02</wgt>
<wgt id='3045'>0.24365E+02</wgt>
<wgt id='3046'>0.23859E+02</wgt>
<wgt id='3047'>0.24092E+02</wgt>
<wgt id='3048'>0.24500E+02</wgt>
<wgt id='3049'>0.24168E+02</wgt>
<wgt id='3050'>0.24995E+02</wgt>
<wgt id='3051'>0.23682E+02</wgt>
<wgt id='3052'>0.24276E+02</wgt>
<wgt id='3053'>0.24507E+02</wgt>
<wgt id='3054'>0.24371E+02</wgt>
<wgt id='3055'>0.23943E+02</wgt>
<wgt id='3056'>0.23950E+02</wgt>
<wgt id='3057'>0.24531E+02</wgt>
<wgt id='3058'>0.24137E+02</wgt>
<wgt id='3059'>0.24367E+02</wgt>
<wgt id='3060'>0.24442E+02</wgt>
<wgt id='3061'>0.24364E+02</wgt>
<wgt id='3062'>0.24288E+02</wgt>
<wgt id='3063'>0.23976E+02</wgt>
<wgt id='3064'>0.24642E+02</wgt>
<wgt id='3065'>0.24257E+02</wgt>
<wgt id='3066'>0.24420E+02</wgt>
<wgt id='3067'>0.24485E+02</wgt>
<wgt id='3068'>0.24146E+02</wgt>
<wgt id='3069'>0.24200E+02</wgt>
<wgt id='3070'>0.24162E+02</wgt>
<wgt id='3071'>0.24423E+02</wgt>
<wgt id='3072'>0.24265E+02</wgt>
<wgt id='3073'>0.24328E+02</wgt>
<wgt id='3074'>0.24686E+02</wgt>
<wgt id='3075'>0.24304E+02</wgt>
<wgt id='3076'>0.24493E+02</wgt>
<wgt id='3077'>0.24455E+02</wgt>
<wgt id='3078'>0.24338E+02</wgt>
<wgt id='3079'>0.23986E+02</wgt>
<wgt id='3080'>0.24154E+02</wgt>
<wgt id='3081'>0.24184E+02</wgt>
<wgt id='3082'>0.24086E+02</wgt>
<wgt id='3083'>0.24191E+02</wgt>
<wgt id='3084'>0.24197E+02</wgt>
<wgt id='3085'>0.24438E+02</wgt>
<wgt id='3086'>0.24182E+02</wgt>
<wgt id='3087'>0.24024E+02</wgt>
<wgt id='3088'>0.24195E+02</wgt>
<wgt id='3089'>0.24236E+02</wgt>
<wgt id='3090'>0.24352E+02</wgt>
<wgt id='3091'>0.24205E+02</wgt>
<wgt id='3092'>0.24333E+02</wgt>
<wgt id='3093'>0.24386E+02</wgt>
<wgt id='3094'>0.24381E+02</wgt>
<wgt id='3095'>0.24413E+02</wgt>
<wgt id='3096'>0.24211E+02</wgt>
<wgt id='3097'>0.24365E+02</wgt>
<wgt id='3098'>0.24346E+02</wgt>
<wgt id='3099'>0.24365E+02</wgt>
<wgt id='3100'>0.24393E+02</wgt>
<wgt id='3101'>0.22622E+02</wgt>
<wgt id='3102'>0.25625E+02</wgt>
<wgt id='5000'>0.23901E+02</wgt>
<wgt id='5001'>0.24504E+02</wgt>
<wgt id='5002'>0.23551E+02</wgt>
<wgt id='5003'>0.24712E+02</wgt>
<wgt id='5004'>0.23358E+02</wgt>
<wgt id='5005'>0.27859E+02</wgt>
<wgt id='5006'>0.23972E+02</wgt>
<wgt id='5007'>0.23882E+02</wgt>
<wgt id='5008'>0.25535E+02</wgt>
<wgt id='5009'>0.24198E+02</wgt>
<wgt id='5010'>0.23971E+02</wgt>
<wgt id='5011'>0.24679E+02</wgt>
<wgt id='5012'>0.23099E+02</wgt>
<wgt id='5013'>0.21768E+02</wgt>
<wgt id='5014'>0.26359E+02</wgt>
<wgt id='5015'>0.22815E+02</wgt>
<wgt id='5016'>0.27274E+02</wgt>
<wgt id='5017'>0.24170E+02</wgt>
<wgt id='5018'>0.23612E+02</wgt>
<wgt id='5019'>0.22785E+02</wgt>
<wgt id='5020'>0.24981E+02</wgt>
<wgt id='5021'>0.23356E+02</wgt>
<wgt id='5022'>0.24257E+02</wgt>
<wgt id='5023'>0.23385E+02</wgt>
<wgt id='5024'>0.24540E+02</wgt>
<wgt id='5025'>0.23752E+02</wgt>
<wgt id='5026'>0.24025E+02</wgt>
<wgt id='5027'>0.23169E+02</wgt>
<wgt id='5028'>0.25213E+02</wgt>
<wgt id='5029'>0.25643E+02</wgt>
<wgt id='5030'>0.22906E+02</wgt>
<wgt id='5031'>0.24990E+02</wgt>
<wgt id='5032'>0.22449E+02</wgt>
<wgt id='5033'>0.23728E+02</wgt>
<wgt id='5034'>0.24073E+02</wgt>
<wgt id='5035'>0.22938E+02</wgt>
<wgt id='5036'>0.24776E+02</wgt>
<wgt id='5037'>0.23471E+02</wgt>
<wgt id='5038'>0.24441E+02</wgt>
<wgt id='5039'>0.23421E+02</wgt>
<wgt id='5040'>0.24191E+02</wgt>
<wgt id='5041'>0.27018E+02</wgt>
<wgt id='5042'>0.22813E+02</wgt>
<wgt id='5043'>0.20143E+02</wgt>
<wgt id='5044'>0.28455E+02</wgt>
<wgt id='5045'>0.22891E+02</wgt>
<wgt id='5046'>0.25766E+02</wgt>
<wgt id='5047'>0.24896E+02</wgt>
<wgt id='5048'>0.23364E+02</wgt>
<wgt id='5049'>0.24256E+02</wgt>
<wgt id='5050'>0.23085E+02</wgt>
<wgt id='5051'>0.23352E+02</wgt>
<wgt id='5052'>0.24431E+02</wgt>
<wgt id='5053'>0.20402E+02</wgt>
<wgt id='5054'>0.19829E+02</wgt>
<wgt id='5055'>0.23707E+02</wgt>
<wgt id='5056'>0.24987E+02</wgt>
<wgt id='5060'>0.21935E+02</wgt>
<wgt id='5070'>0.26530E+02</wgt>
<wgt id='4000'>0.25078E+02</wgt>
<wgt id='4001'>0.25207E+02</wgt>
<wgt id='4002'>0.24507E+02</wgt>
<wgt id='4003'>0.24527E+02</wgt>
<wgt id='4004'>0.26766E+02</wgt>
<wgt id='4005'>0.23419E+02</wgt>
<wgt id='4006'>0.26228E+02</wgt>
<wgt id='4007'>0.24896E+02</wgt>
<wgt id='4008'>0.25566E+02</wgt>
<wgt id='4009'>0.28332E+02</wgt>
<wgt id='4010'>0.21573E+02</wgt>
<wgt id='4011'>0.24416E+02</wgt>
<wgt id='4012'>0.25570E+02</wgt>
<wgt id='4013'>0.29782E+02</wgt>
<wgt id='4014'>0.22527E+02</wgt>
<wgt id='4015'>0.25982E+02</wgt>
<wgt id='4016'>0.24557E+02</wgt>
<wgt id='4017'>0.24789E+02</wgt>
<wgt id='4018'>0.25437E+02</wgt>
<wgt id='4019'>0.23041E+02</wgt>
<wgt id='4020'>0.27505E+02</wgt>
<wgt id='4021'>0.24394E+02</wgt>
<wgt id='4022'>0.26529E+02</wgt>
<wgt id='4023'>0.26511E+02</wgt>
<wgt id='4024'>0.23784E+02</wgt>
<wgt id='4025'>0.24379E+02</wgt>
<wgt id='4026'>0.25768E+02</wgt>
<wgt id='4027'>0.25476E+02</wgt>
<wgt id='4028'>0.24522E+02</wgt>
<wgt id='4029'>0.25470E+02</wgt>
<wgt id='4030'>0.24939E+02</wgt>
<wgt id='4031'>0.24844E+02</wgt>
<wgt id='4032'>0.25389E+02</wgt>
<wgt id='4033'>0.25513E+02</wgt>
<wgt id='4034'>0.24161E+02</wgt>
<wgt id='4035'>0.25036E+02</wgt>
<wgt id='4036'>0.25019E+02</wgt>
<wgt id='4037'>0.23638E+02</wgt>
<wgt id='4038'>0.27424E+02</wgt>
<wgt id='4039'>0.24347E+02</wgt>
<wgt id='4040'>0.25730E+02</wgt>
<wgt id='4041'>0.26285E+02</wgt>
<wgt id='4042'>0.23778E+02</wgt>
<wgt id='4043'>0.27341E+02</wgt>
<wgt id='4044'>0.23149E+02</wgt>
<wgt id='4045'>0.24059E+02</wgt>
<wgt id='4046'>0.26185E+02</wgt>
<wgt id='4047'>0.26664E+02</wgt>
<wgt id='4048'>0.25264E+02</wgt>
<wgt id='4049'>0.25062E+02</wgt>
<wgt id='4050'>0.28776E+02</wgt>
<wgt id='4051'>0.24934E+02</wgt>
<wgt id='4052'>0.25488E+02</wgt>
<wgt id='4053'>0.23681E+02</wgt>
<wgt id='4054'>0.24629E+02</wgt>
<wgt id='4055'>0.25031E+02</wgt>
<wgt id='4056'>0.25683E+02</wgt>
<wgt id='4060'>0.23257E+02</wgt>
<wgt id='4070'>0.27551E+02</wgt>
<wgt id='4080'>0.42512E+02</wgt>
<wgt id='6000'>0.23643E+02</wgt>
<wgt id='6001'>0.23720E+02</wgt>
<wgt id='6002'>0.23560E+02</wgt>
<wgt id='6003'>0.23659E+02</wgt>
<wgt id='6004'>0.23632E+02</wgt>
<wgt id='6005'>0.23517E+02</wgt>
<wgt id='6006'>0.23758E+02</wgt>
<wgt id='6007'>0.23730E+02</wgt>
<wgt id='6008'>0.23546E+02</wgt>
<wgt id='6009'>0.23806E+02</wgt>
<wgt id='6010'>0.23484E+02</wgt>
<wgt id='6011'>0.23687E+02</wgt>
<wgt id='6012'>0.23546E+02</wgt>
<wgt id='6013'>0.23617E+02</wgt>
<wgt id='6014'>0.23691E+02</wgt>
<wgt id='6015'>0.23663E+02</wgt>
<wgt id='6016'>0.23632E+02</wgt>
<wgt id='6017'>0.23470E+02</wgt>
<wgt id='6018'>0.23847E+02</wgt>
<wgt id='6019'>0.23591E+02</wgt>
<wgt id='6020'>0.23689E+02</wgt>
<wgt id='6021'>0.23528E+02</wgt>
<wgt id='6022'>0.23795E+02</wgt>
<wgt id='6023'>0.23473E+02</wgt>
<wgt id='6024'>0.23759E+02</wgt>
<wgt id='6025'>0.24301E+02</wgt>
<wgt id='6026'>0.22899E+02</wgt>
<wgt id='6027'>0.23668E+02</wgt>
<wgt id='6028'>0.23684E+02</wgt>
<wgt id='6029'>0.23089E+02</wgt>
<wgt id='6030'>0.24333E+02</wgt>
<wgt id='6031'>0.22833E+02</wgt>
<wgt id='6032'>0.24638E+02</wgt>
<wgt id='6033'>0.23940E+02</wgt>
<wgt id='6034'>0.23362E+02</wgt>
<wgt id='6035'>0.23828E+02</wgt>
<wgt id='6036'>0.23294E+02</wgt>
<wgt id='6037'>0.23606E+02</wgt>
<wgt id='6038'>0.23637E+02</wgt>
<wgt id='6039'>0.23449E+02</wgt>
<wgt id='6040'>0.23866E+02</wgt>
<wgt id='6041'>0.23241E+02</wgt>
<wgt id='6042'>0.24121E+02</wgt>
<wgt id='6043'>0.23768E+02</wgt>
<wgt id='6044'>0.23823E+02</wgt>
<wgt id='6045'>0.23561E+02</wgt>
<wgt id='6046'>0.23878E+02</wgt>
<wgt id='6047'>0.22868E+02</wgt>
<wgt id='6048'>0.25279E+02</wgt>
<wgt id='6049'>0.23095E+02</wgt>
<wgt id='6050'>0.23965E+02</wgt>
<wgt id='7000'>0.27111E+02</wgt>
<wgt id='7001'>0.27237E+02</wgt>
<wgt id='7002'>0.26948E+02</wgt>
<wgt id='7003'>0.27072E+02</wgt>
<wgt id='7004'>0.27148E+02</wgt>
<wgt id='7005'>0.27099E+02</wgt>
<wgt id='7006'>0.27116E+02</wgt>
<wgt id='7007'>0.27081E+02</wgt>
<wgt id='7008'>0.27139E+02</wgt>
<wgt id='7009'>0.27208E+02</wgt>
<wgt id='7010'>0.27017E+02</wgt>
<wgt id='7011'>0.26757E+02</wgt>
<wgt id='7012'>0.27262E+02</wgt>
<wgt id='7013'>0.27091E+02</wgt>
<wgt id='7014'>0.27135E+02</wgt>
<wgt id='7015'>0.27013E+02</wgt>
<wgt id='7016'>0.27216E+02</wgt>
<wgt id='7017'>0.26493E+02</wgt>
<wgt id='7018'>0.27455E+02</wgt>
<wgt id='7019'>0.27062E+02</wgt>
<wgt id='7020'>0.27181E+02</wgt>
<wgt id='7021'>0.27244E+02</wgt>
<wgt id='7022'>0.27016E+02</wgt>
<wgt id='7023'>0.26885E+02</wgt>
<wgt id='7024'>0.27277E+02</wgt>
<wgt id='7025'>0.27068E+02</wgt>
<wgt id='7026'>0.27224E+02</wgt>
<wgt id='7027'>0.27024E+02</wgt>
<wgt id='7028'>0.27340E+02</wgt>
<wgt id='7029'>0.27905E+02</wgt>
<wgt id='7030'>0.25100E+02</wgt>
<wgt id='7031'>0.26558E+02</wgt>
<wgt id='7032'>0.28368E+02</wgt>
<wgt id='7033'>0.27409E+02</wgt>
<wgt id='7034'>0.26632E+02</wgt>
<wgt id='7035'>0.26225E+02</wgt>
<wgt id='7036'>0.27601E+02</wgt>
<wgt id='7037'>0.27073E+02</wgt>
<wgt id='7038'>0.27276E+02</wgt>
<wgt id='7039'>0.26718E+02</wgt>
<wgt id='7040'>0.27407E+02</wgt>
<wgt id='7041'>0.28135E+02</wgt>
<wgt id='7042'>0.25782E+02</wgt>
<wgt id='7043'>0.27176E+02</wgt>
<wgt id='7044'>0.26758E+02</wgt>
<wgt id='7045'>0.28303E+02</wgt>
<wgt id='7046'>0.26499E+02</wgt>
<wgt id='7047'>0.26782E+02</wgt>
<wgt id='7048'>0.27291E+02</wgt>
<wgt id='7049'>0.28380E+02</wgt>
<wgt id='7050'>0.26459E+02</wgt>
<wgt id='7060'>0.49970E+02</wgt>
<wgt id='8000'>0.19457E+02</wgt>
<wgt id='8001'>0.19454E+02</wgt>
<wgt id='8002'>0.19461E+02</wgt>
<wgt id='8003'>0.19455E+02</wgt>
<wgt id='8004'>0.19456E+02</wgt>
<wgt id='8005'>0.19412E+02</wgt>
<wgt id='8006'>0.19461E+02</wgt>
<wgt id='8007'>0.19442E+02</wgt>
<wgt id='8008'>0.19464E+02</wgt>
<wgt id='8009'>0.19498E+02</wgt>
<wgt id='8010'>0.19459E+02</wgt>
<wgt id='8011'>0.19479E+02</wgt>
<wgt id='8012'>0.19462E+02</wgt>
<wgt id='8013'>0.19454E+02</wgt>
<wgt id='8014'>0.19457E+02</wgt>
<wgt id='8015'>0.19434E+02</wgt>
<wgt id='8016'>0.19526E+02</wgt>
<wgt id='8017'>0.19546E+02</wgt>
<wgt id='8018'>0.19571E+02</wgt>
<wgt id='8019'>0.19217E+02</wgt>
<wgt id='8020'>0.19824E+02</wgt>
<wgt id='8021'>0.19361E+02</wgt>
<wgt id='8022'>0.20111E+02</wgt>
<wgt id='8023'>0.19237E+02</wgt>
<wgt id='8024'>0.19097E+02</wgt>
<wgt id='8025'>0.19025E+02</wgt>
<wgt id='8026'>0.19349E+02</wgt>
<wgt id='8027'>0.19564E+02</wgt>
<wgt id='8028'>0.19461E+02</wgt>
<wgt id='8029'>0.21409E+02</wgt>
<wgt id='8500'>0.24987E+02</wgt>
<wgt id='8501'>0.24563E+02</wgt>
<wgt id='8502'>0.24425E+02</wgt>
<wgt id='8503'>0.25007E+02</wgt>
<wgt id='8504'>0.24887E+02</wgt>
<wgt id='8505'>0.25456E+02</wgt>
<wgt id='8506'>0.25133E+02</wgt>
<wgt id='8507'>0.24762E+02</wgt>
<wgt id='8508'>0.23819E+02</wgt>
<wgt id='8509'>0.25476E+02</wgt>
<wgt id='8510'>0.24763E+02</wgt>
<wgt id='8511'>0.24813E+02</wgt>
<wgt id='8512'>0.25964E+02</wgt>
<wgt id='8513'>0.25416E+02</wgt>
<wgt id='8514'>0.25091E+02</wgt>
<wgt id='8515'>0.25286E+02</wgt>
<wgt id='8516'>0.24717E+02</wgt>
<wgt id='8517'>0.25898E+02</wgt>
<wgt id='8518'>0.25566E+02</wgt>
<wgt id='8519'>0.26054E+02</wgt>
<wgt id='8520'>0.23632E+02</wgt>
<wgt id='8521'>0.25532E+02</wgt>
<wgt id='8522'>0.25804E+02</wgt>
<wgt id='8523'>0.23903E+02</wgt>
<wgt id='8524'>0.26564E+02</wgt>
<wgt id='8525'>0.24590E+02</wgt>
<wgt id='8526'>0.25464E+02</wgt>
<wgt id='8527'>0.25189E+02</wgt>
<wgt id='8528'>0.24711E+02</wgt>
<wgt id='8529'>0.24344E+02</wgt>
<wgt id='8530'>0.25061E+02</wgt>
<wgt id='8531'>0.25111E+02</wgt>
<wgt id='8532'>0.24871E+02</wgt>
<wgt id='8533'>0.24678E+02</wgt>
<wgt id='8534'>0.24809E+02</wgt>
<wgt id='8535'>0.25115E+02</wgt>
<wgt id='8536'>0.24654E+02</wgt>
<wgt id='8537'>0.24917E+02</wgt>
<wgt id='8538'>0.25003E+02</wgt>
<wgt id='8539'>0.24835E+02</wgt>
<wgt id='8540'>0.25104E+02</wgt>
<wgt id='8541'>0.24885E+02</wgt>
<wgt id='8542'>0.24758E+02</wgt>
<wgt id='8543'>0.24855E+02</wgt>
<wgt id='8544'>0.24993E+02</wgt>
<wgt id='8545'>0.25096E+02</wgt>
<wgt id='8546'>0.25135E+02</wgt>
<wgt id='8547'>0.24861E+02</wgt>
<wgt id='8548'>0.24735E+02</wgt>
<wgt id='8549'>0.25076E+02</wgt>
<wgt id='8550'>0.24973E+02</wgt>
<wgt id='8551'>0.25019E+02</wgt>
<wgt id='8552'>0.24928E+02</wgt>
<wgt id='8553'>0.24902E+02</wgt>
<wgt id='8554'>0.24971E+02</wgt>
<wgt id='8555'>0.24962E+02</wgt>
<wgt id='8556'>0.24964E+02</wgt>
<wgt id='8557'>0.25055E+02</wgt>
<wgt id='8558'>0.25013E+02</wgt>
<wgt id='8559'>0.24977E+02</wgt>
<wgt id='8560'>0.24947E+02</wgt>
<wgt id='8561'>0.25033E+02</wgt>
<wgt id='8562'>0.24977E+02</wgt>
<wgt id='8563'>0.24982E+02</wgt>
<wgt id='8564'>0.25053E+02</wgt>
<wgt id='8565'>0.25029E+02</wgt>
<wgt id='8566'>0.25090E+02</wgt>
<wgt id='8567'>0.25006E+02</wgt>
<wgt id='8568'>0.25002E+02</wgt>
<wgt id='8569'>0.25014E+02</wgt>
<wgt id='8570'>0.25015E+02</wgt>
<wgt id='8571'>0.24926E+02</wgt>
<wgt id='8572'>0.24951E+02</wgt>
<wgt id='8573'>0.24944E+02</wgt>
<wgt id='8574'>0.24992E+02</wgt>
<wgt id='8575'>0.24927E+02</wgt>
<wgt id='8576'>0.25016E+02</wgt>
<wgt id='8577'>0.24940E+02</wgt>
<wgt id='8578'>0.25026E+02</wgt>
<wgt id='8579'>0.25068E+02</wgt>
<wgt id='8580'>0.24958E+02</wgt>
<wgt id='8581'>0.24999E+02</wgt>
<wgt id='8582'>0.24952E+02</wgt>
<wgt id='8583'>0.24996E+02</wgt>
<wgt id='8584'>0.25044E+02</wgt>
<wgt id='8585'>0.24997E+02</wgt>
<wgt id='8586'>0.25085E+02</wgt>
<wgt id='8587'>0.24993E+02</wgt>
<wgt id='8588'>0.24978E+02</wgt>
<wgt id='8589'>0.24998E+02</wgt>
<wgt id='8590'>0.24966E+02</wgt>
<wgt id='8591'>0.24966E+02</wgt>
<wgt id='8592'>0.24990E+02</wgt>
<wgt id='8593'>0.24946E+02</wgt>
<wgt id='8594'>0.24976E+02</wgt>
<wgt id='8595'>0.24976E+02</wgt>
<wgt id='8596'>0.24974E+02</wgt>
<wgt id='8597'>0.25006E+02</wgt>
<wgt id='8598'>0.25005E+02</wgt>
<wgt id='8599'>0.25011E+02</wgt>
<wgt id='8600'>0.24989E+02</wgt>
<wgt id='8601'>0.23664E+02</wgt>
<wgt id='8602'>0.26662E+02</wgt>
<wgt id='9000'>0.24729E+02</wgt>
<wgt id='9001'>0.25152E+02</wgt>
<wgt id='9002'>0.24674E+02</wgt>
<wgt id='9003'>0.25383E+02</wgt>
<wgt id='9004'>0.24923E+02</wgt>
<wgt id='9005'>0.24607E+02</wgt>
<wgt id='9006'>0.24731E+02</wgt>
<wgt id='9007'>0.24967E+02</wgt>
<wgt id='9008'>0.24353E+02</wgt>
<wgt id='9009'>0.24727E+02</wgt>
<wgt id='9010'>0.24810E+02</wgt>
<wgt id='9011'>0.23843E+02</wgt>
<wgt id='9012'>0.25290E+02</wgt>
<wgt id='9013'>0.25511E+02</wgt>
<wgt id='9014'>0.25692E+02</wgt>
<wgt id='9015'>0.25397E+02</wgt>
<wgt id='9016'>0.24089E+02</wgt>
<wgt id='9017'>0.24834E+02</wgt>
<wgt id='9018'>0.24926E+02</wgt>
<wgt id='9019'>0.25005E+02</wgt>
<wgt id='9020'>0.22336E+02</wgt>
<wgt id='9021'>0.24323E+02</wgt>
<wgt id='9022'>0.25544E+02</wgt>
<wgt id='9023'>0.22845E+02</wgt>
<wgt id='9024'>0.24221E+02</wgt>
<wgt id='9025'>0.25778E+02</wgt>
<wgt id='9026'>0.24503E+02</wgt>
<wgt id='9027'>0.24530E+02</wgt>
<wgt id='9028'>0.24933E+02</wgt>
<wgt id='9029'>0.24912E+02</wgt>
<wgt id='9030'>0.24376E+02</wgt>
<wgt id='9031'>0.24390E+02</wgt>
<wgt id='9032'>0.24665E+02</wgt>
<wgt id='9033'>0.24825E+02</wgt>
<wgt id='9034'>0.25291E+02</wgt>
<wgt id='9035'>0.24971E+02</wgt>
<wgt id='9036'>0.24824E+02</wgt>
<wgt id='9037'>0.24802E+02</wgt>
<wgt id='9038'>0.24802E+02</wgt>
<wgt id='9039'>0.24551E+02</wgt>
<wgt id='9040'>0.24607E+02</wgt>
<wgt id='9041'>0.24685E+02</wgt>
<wgt id='9042'>0.24849E+02</wgt>
<wgt id='9043'>0.24592E+02</wgt>
<wgt id='9044'>0.24846E+02</wgt>
<wgt id='9045'>0.24653E+02</wgt>
<wgt id='9046'>0.24652E+02</wgt>
<wgt id='9047'>0.24745E+02</wgt>
<wgt id='9048'>0.24748E+02</wgt>
<wgt id='9049'>0.24652E+02</wgt>
<wgt id='9050'>0.24759E+02</wgt>
<wgt id='9051'>0.24824E+02</wgt>
<wgt id='9052'>0.24826E+02</wgt>
<wgt id='9053'>0.24753E+02</wgt>
<wgt id='9054'>0.24665E+02</wgt>
<wgt id='9055'>0.24692E+02</wgt>
<wgt id='9056'>0.24706E+02</wgt>
<wgt id='9057'>0.24697E+02</wgt>
<wgt id='9058'>0.24710E+02</wgt>
<wgt id='9059'>0.24659E+02</wgt>
<wgt id='9060'>0.24731E+02</wgt>
<wgt id='9061'>0.24701E+02</wgt>
<wgt id='9062'>0.24738E+02</wgt>
<wgt id='9063'>0.24720E+02</wgt>
<wgt id='9064'>0.24795E+02</wgt>
<wgt id='9065'>0.24695E+02</wgt>
<wgt id='9066'>0.24673E+02</wgt>
<wgt id='9067'>0.24679E+02</wgt>
<wgt id='9068'>0.24746E+02</wgt>
<wgt id='9069'>0.24761E+02</wgt>
<wgt id='9070'>0.24724E+02</wgt>
<wgt id='9071'>0.24746E+02</wgt>
<wgt id='9072'>0.24722E+02</wgt>
<wgt id='9073'>0.24711E+02</wgt>
<wgt id='9074'>0.24769E+02</wgt>
<wgt id='9075'>0.24700E+02</wgt>
<wgt id='9076'>0.24705E+02</wgt>
<wgt id='9077'>0.24747E+02</wgt>
<wgt id='9078'>0.24762E+02</wgt>
<wgt id='9079'>0.24696E+02</wgt>
<wgt id='9080'>0.24770E+02</wgt>
<wgt id='9081'>0.24723E+02</wgt>
<wgt id='9082'>0.24707E+02</wgt>
<wgt id='9083'>0.24725E+02</wgt>
<wgt id='9084'>0.24669E+02</wgt>
<wgt id='9085'>0.24667E+02</wgt>
<wgt id='9086'>0.24772E+02</wgt>
<wgt id='9087'>0.24668E+02</wgt>
<wgt id='9088'>0.24712E+02</wgt>
<wgt id='9089'>0.24708E+02</wgt>
<wgt id='9090'>0.24759E+02</wgt>
<wgt id='9091'>0.24712E+02</wgt>
<wgt id='9092'>0.24732E+02</wgt>
<wgt id='9093'>0.24705E+02</wgt>
<wgt id='9094'>0.24692E+02</wgt>
<wgt id='9095'>0.24722E+02</wgt>
<wgt id='9096'>0.24720E+02</wgt>
<wgt id='9097'>0.24734E+02</wgt>
<wgt id='9098'>0.24726E+02</wgt>
<wgt id='9099'>0.24700E+02</wgt>
<wgt id='9100'>0.24737E+02</wgt>
<wgt id='9101'>0.23267E+02</wgt>
<wgt id='9102'>0.26838E+02</wgt>
<wgt id='10000'>0.24987E+02</wgt>
<wgt id='10001'>0.24707E+02</wgt>
<wgt id='10002'>0.24203E+02</wgt>
<wgt id='10003'>0.24709E+02</wgt>
<wgt id='10004'>0.24180E+02</wgt>
<wgt id='10005'>0.23512E+02</wgt>
<wgt id='10006'>0.23859E+02</wgt>
<wgt id='10007'>0.25106E+02</wgt>
<wgt id='10008'>0.24189E+02</wgt>
<wgt id='10009'>0.24941E+02</wgt>
<wgt id='10010'>0.24691E+02</wgt>
<wgt id='10011'>0.24577E+02</wgt>
<wgt id='10012'>0.24436E+02</wgt>
<wgt id='10013'>0.25164E+02</wgt>
<wgt id='10014'>0.24909E+02</wgt>
<wgt id='10015'>0.24933E+02</wgt>
<wgt id='10016'>0.24862E+02</wgt>
<wgt id='10017'>0.25083E+02</wgt>
<wgt id='10018'>0.25644E+02</wgt>
<wgt id='10019'>0.25031E+02</wgt>
<wgt id='10020'>0.25012E+02</wgt>
<wgt id='10021'>0.24710E+02</wgt>
<wgt id='10022'>0.27683E+02</wgt>
<wgt id='10023'>0.25028E+02</wgt>
<wgt id='10024'>0.24951E+02</wgt>
<wgt id='10025'>0.24983E+02</wgt>
<wgt id='10026'>0.25034E+02</wgt>
<wgt id='10027'>0.24973E+02</wgt>
<wgt id='10028'>0.24952E+02</wgt>
<wgt id='10029'>0.24910E+02</wgt>
<wgt id='10030'>0.24954E+02</wgt>
<wgt id='10031'>0.23664E+02</wgt>
<wgt id='10032'>0.26662E+02</wgt>
<wgt id='11000'>0.24728E+02</wgt>
<wgt id='11001'>0.25245E+02</wgt>
<wgt id='11002'>0.24822E+02</wgt>
<wgt id='11003'>0.24940E+02</wgt>
<wgt id='11004'>0.24772E+02</wgt>
<wgt id='11005'>0.28648E+02</wgt>
<wgt id='11006'>0.24745E+02</wgt>
<wgt id='11007'>0.24702E+02</wgt>
<wgt id='11008'>0.24726E+02</wgt>
<wgt id='11009'>0.24572E+02</wgt>
<wgt id='11010'>0.25258E+02</wgt>
<wgt id='11011'>0.24620E+02</wgt>
<wgt id='11012'>0.24751E+02</wgt>
<wgt id='11013'>0.24765E+02</wgt>
<wgt id='11014'>0.24763E+02</wgt>
<wgt id='11015'>0.24946E+02</wgt>
<wgt id='11016'>0.25154E+02</wgt>
<wgt id='11017'>0.24662E+02</wgt>
<wgt id='11018'>0.24745E+02</wgt>
<wgt id='11019'>0.24737E+02</wgt>
<wgt id='11020'>0.24672E+02</wgt>
<wgt id='11021'>0.24744E+02</wgt>
<wgt id='11022'>0.24715E+02</wgt>
<wgt id='11023'>0.24731E+02</wgt>
<wgt id='11024'>0.24743E+02</wgt>
<wgt id='11025'>0.24825E+02</wgt>
<wgt id='11026'>0.24657E+02</wgt>
<wgt id='11027'>0.24693E+02</wgt>
<wgt id='11028'>0.24696E+02</wgt>
<wgt id='11029'>0.24769E+02</wgt>
<wgt id='11030'>0.24730E+02</wgt>
<wgt id='11031'>0.23267E+02</wgt>
<wgt id='11032'>0.26838E+02</wgt>
<wgt id='12000'>0.16223E+02</wgt>
<wgt id='12001'>0.16215E+02</wgt>
<wgt id='12002'>0.16231E+02</wgt>
<wgt id='12003'>0.16255E+02</wgt>
<wgt id='12004'>0.16192E+02</wgt>
<wgt id='12005'>0.16171E+02</wgt>
<wgt id='12006'>0.16276E+02</wgt>
<wgt id='12007'>0.16207E+02</wgt>
<wgt id='12008'>0.16239E+02</wgt>
<wgt id='12009'>0.16216E+02</wgt>
<wgt id='12010'>0.16234E+02</wgt>
<wgt id='12011'>0.16237E+02</wgt>
<wgt id='12012'>0.16191E+02</wgt>
<wgt id='12013'>0.16373E+02</wgt>
<wgt id='12014'>0.16073E+02</wgt>
<wgt id='12015'>0.16201E+02</wgt>
<wgt id='12016'>0.16321E+02</wgt>
<wgt id='12017'>0.16140E+02</wgt>
<wgt id='12018'>0.16283E+02</wgt>
<wgt id='12019'>0.16522E+02</wgt>
<wgt id='12020'>0.15974E+02</wgt>
<wgt id='12021'>0.16364E+02</wgt>
<wgt id='12022'>0.16089E+02</wgt>
<wgt id='12023'>0.16250E+02</wgt>
<wgt id='12024'>0.16264E+02</wgt>
<wgt id='12025'>0.16112E+02</wgt>
<wgt id='12026'>0.16309E+02</wgt>
<wgt id='12027'>0.16251E+02</wgt>
<wgt id='12028'>0.16253E+02</wgt>
<wgt id='12050'>0.16223E+02</wgt>
<wgt id='12051'>0.16266E+02</wgt>
<wgt id='12052'>0.16198E+02</wgt>
<wgt id='12053'>0.16274E+02</wgt>
<wgt id='12054'>0.16207E+02</wgt>
<wgt id='12055'>0.16081E+02</wgt>
<wgt id='12056'>0.16675E+02</wgt>
<wgt id='12057'>0.16225E+02</wgt>
<wgt id='12058'>0.16231E+02</wgt>
<wgt id='12059'>0.16209E+02</wgt>
<wgt id='12060'>0.16253E+02</wgt>
<wgt id='12061'>0.16336E+02</wgt>
<wgt id='12062'>0.16190E+02</wgt>
<wgt id='12063'>0.16473E+02</wgt>
<wgt id='13000'>0.18039E+02</wgt>
<wgt id='13001'>0.18034E+02</wgt>
<wgt id='13002'>0.18046E+02</wgt>
<wgt id='13003'>0.18093E+02</wgt>
<wgt id='13004'>0.17987E+02</wgt>
<wgt id='13005'>0.18024E+02</wgt>
<wgt id='13006'>0.18056E+02</wgt>
<wgt id='13007'>0.18019E+02</wgt>
<wgt id='13008'>0.18059E+02</wgt>
<wgt id='13009'>0.18015E+02</wgt>
<wgt id='13010'>0.18063E+02</wgt>
<wgt id='13011'>0.18077E+02</wgt>
<wgt id='13012'>0.18006E+02</wgt>
<wgt id='13013'>0.18153E+02</wgt>
<wgt id='13014'>0.17931E+02</wgt>
<wgt id='13015'>0.18187E+02</wgt>
<wgt id='13016'>0.17990E+02</wgt>
<wgt id='13017'>0.17915E+02</wgt>
<wgt id='13018'>0.18178E+02</wgt>
<wgt id='13019'>0.18457E+02</wgt>
<wgt id='13020'>0.17649E+02</wgt>
<wgt id='13021'>0.18692E+02</wgt>
<wgt id='13022'>0.17502E+02</wgt>
<wgt id='13023'>0.17566E+02</wgt>
<wgt id='13024'>0.18529E+02</wgt>
<wgt id='13025'>0.17609E+02</wgt>
<wgt id='13026'>0.18460E+02</wgt>
<wgt id='13027'>0.17859E+02</wgt>
<wgt id='13028'>0.18261E+02</wgt>
<wgt id='13050'>0.18039E+02</wgt>
<wgt id='13051'>0.18102E+02</wgt>
<wgt id='13052'>0.17989E+02</wgt>
<wgt id='13053'>0.18166E+02</wgt>
<wgt id='13054'>0.18025E+02</wgt>
<wgt id='13055'>0.16749E+02</wgt>
<wgt id='13056'>0.19533E+02</wgt>
<wgt id='13057'>0.18096E+02</wgt>
<wgt id='13058'>0.17944E+02</wgt>
<wgt id='13059'>0.18304E+02</wgt>
<wgt id='13060'>0.16773E+02</wgt>
<wgt id='13061'>0.18360E+02</wgt>
<wgt id='13062'>0.17624E+02</wgt>
<wgt id='13063'>0.19135E+02</wgt>
<wgt id='14000'>0.24883E+02</wgt>
<wgt id='14001'>0.24880E+02</wgt>
<wgt id='14002'>0.24877E+02</wgt>
<wgt id='14003'>0.24874E+02</wgt>
<wgt id='14004'>0.24871E+02</wgt>
<wgt id='14005'>0.24868E+02</wgt>
<wgt id='14006'>0.24865E+02</wgt>
<wgt id='14007'>0.24862E+02</wgt>
<wgt id='14008'>0.24859E+02</wgt>
<wgt id='14009'>0.24856E+02</wgt>
<wgt id='14010'>0.24853E+02</wgt>
<wgt id='14011'>0.24850E+02</wgt>
<wgt id='14012'>0.24847E+02</wgt>
<wgt id='14013'>0.24844E+02</wgt>
<wgt id='14014'>0.24841E+02</wgt>
<wgt id='14015'>0.24838E+02</wgt>
<wgt id='14016'>0.24835E+02</wgt>
<wgt id='14017'>0.24832E+02</wgt>
<wgt id='14018'>0.24829E+02</wgt>
<wgt id='14019'>0.24827E+02</wgt>
<wgt id='14020'>0.24824E+02</wgt>
<wgt id='14021'>0.24821E+02</wgt>
<wgt id='14022'>0.24818E+02</wgt>
<wgt id='14023'>0.24815E+02</wgt>
<wgt id='14024'>0.24812E+02</wgt>
<wgt id='14025'>0.24809E+02</wgt>
<wgt id='14026'>0.24806E+02</wgt>
<wgt id='14027'>0.24803E+02</wgt>
<wgt id='14028'>0.24800E+02</wgt>
<wgt id='14029'>0.24797E+02</wgt>
<wgt id='14030'>0.24794E+02</wgt>
<wgt id='15000'>0.24421E+02</wgt>
<wgt id='15001'>0.24836E+02</wgt>
<wgt id='15002'>0.24366E+02</wgt>
<wgt id='15003'>0.25067E+02</wgt>
<wgt id='15004'>0.24613E+02</wgt>
<wgt id='15005'>0.24301E+02</wgt>
<wgt id='15006'>0.24426E+02</wgt>
<wgt id='15007'>0.24658E+02</wgt>
<wgt id='15008'>0.24051E+02</wgt>
<wgt id='15009'>0.24419E+02</wgt>
<wgt id='15010'>0.24501E+02</wgt>
<wgt id='15011'>0.23551E+02</wgt>
<wgt id='15012'>0.24976E+02</wgt>
<wgt id='15013'>0.25195E+02</wgt>
<wgt id='15014'>0.25371E+02</wgt>
<wgt id='15015'>0.25075E+02</wgt>
<wgt id='15016'>0.23793E+02</wgt>
<wgt id='15017'>0.24524E+02</wgt>
<wgt id='15018'>0.24616E+02</wgt>
<wgt id='15019'>0.24697E+02</wgt>
<wgt id='15020'>0.22063E+02</wgt>
<wgt id='15021'>0.24018E+02</wgt>
<wgt id='15022'>0.25225E+02</wgt>
<wgt id='15023'>0.22562E+02</wgt>
<wgt id='15024'>0.23918E+02</wgt>
<wgt id='15025'>0.25455E+02</wgt>
<wgt id='15026'>0.24196E+02</wgt>
<wgt id='15027'>0.24227E+02</wgt>
<wgt id='15028'>0.24624E+02</wgt>
<wgt id='15029'>0.24601E+02</wgt>
<wgt id='15030'>0.24072E+02</wgt>
<wgt id='15031'>0.24089E+02</wgt>
<wgt id='15032'>0.24357E+02</wgt>
<wgt id='15033'>0.24516E+02</wgt>
<wgt id='15034'>0.24976E+02</wgt>
<wgt id='15035'>0.24661E+02</wgt>
<wgt id='15036'>0.24515E+02</wgt>
<wgt id='15037'>0.24494E+02</wgt>
<wgt id='15038'>0.24493E+02</wgt>
<wgt id='15039'>0.24245E+02</wgt>
<wgt id='15040'>0.24302E+02</wgt>
<wgt id='15041'>0.24377E+02</wgt>
<wgt id='15042'>0.24540E+02</wgt>
<wgt id='15043'>0.24287E+02</wgt>
<wgt id='15044'>0.24537E+02</wgt>
<wgt id='15045'>0.24346E+02</wgt>
<wgt id='15046'>0.24346E+02</wgt>
<wgt id='15047'>0.24437E+02</wgt>
<wgt id='15048'>0.24441E+02</wgt>
<wgt id='15049'>0.24345E+02</wgt>
<wgt id='15050'>0.24451E+02</wgt>
<wgt id='15051'>0.24515E+02</wgt>
<wgt id='15052'>0.24517E+02</wgt>
<wgt id='15053'>0.24446E+02</wgt>
<wgt id='15054'>0.24359E+02</wgt>
<wgt id='15055'>0.24385E+02</wgt>
<wgt id='15056'>0.24397E+02</wgt>
<wgt id='15057'>0.24389E+02</wgt>
<wgt id='15058'>0.24403E+02</wgt>
<wgt id='15059'>0.24352E+02</wgt>
<wgt id='15060'>0.24424E+02</wgt>
<wgt id='15061'>0.24394E+02</wgt>
<wgt id='15062'>0.24431E+02</wgt>
<wgt id='15063'>0.24412E+02</wgt>
<wgt id='15064'>0.24487E+02</wgt>
<wgt id='15065'>0.24388E+02</wgt>
<wgt id='15066'>0.24367E+02</wgt>
<wgt id='15067'>0.24372E+02</wgt>
<wgt id='15068'>0.24438E+02</wgt>
<wgt id='15069'>0.24453E+02</wgt>
<wgt id='15070'>0.24417E+02</wgt>
<wgt id='15071'>0.24439E+02</wgt>
<wgt id='15072'>0.24414E+02</wgt>
<wgt id='15073'>0.24403E+02</wgt>
<wgt id='15074'>0.24461E+02</wgt>
<wgt id='15075'>0.24393E+02</wgt>
<wgt id='15076'>0.24398E+02</wgt>
<wgt id='15077'>0.24440E+02</wgt>
<wgt id='15078'>0.24455E+02</wgt>
<wgt id='15079'>0.24389E+02</wgt>
<wgt id='15080'>0.24461E+02</wgt>
<wgt id='15081'>0.24416E+02</wgt>
<wgt id='15082'>0.24400E+02</wgt>
<wgt id='15083'>0.24417E+02</wgt>
<wgt id='15084'>0.24362E+02</wgt>
<wgt id='15085'>0.24360E+02</wgt>
<wgt id='15086'>0.24464E+02</wgt>
<wgt id='15087'>0.24360E+02</wgt>
<wgt id='15088'>0.24404E+02</wgt>
<wgt id='15089'>0.24401E+02</wgt>
<wgt id='15090'>0.24451E+02</wgt>
<wgt id='15091'>0.24404E+02</wgt>
<wgt id='15092'>0.24424E+02</wgt>
<wgt id='15093'>0.24398E+02</wgt>
<wgt id='15094'>0.24385E+02</wgt>
<wgt id='15095'>0.24415E+02</wgt>
<wgt id='15096'>0.24412E+02</wgt>
<wgt id='15097'>0.24427E+02</wgt>
<wgt id='15098'>0.24419E+02</wgt>
<wgt id='15099'>0.24392E+02</wgt>
<wgt id='15100'>0.24429E+02</wgt>
<wgt id='15101'>0.24421E+02</wgt>
<wgt id='15102'>0.24419E+02</wgt>
<wgt id='15103'>0.24421E+02</wgt>
<wgt id='15104'>0.24421E+02</wgt>
<wgt id='15105'>0.24422E+02</wgt>
<wgt id='15106'>0.24421E+02</wgt>
<wgt id='15107'>0.24420E+02</wgt>
<wgt id='1500'>0.26012E+02</wgt>
<wgt id='1501'>0.23831E+02</wgt>
<wgt id='1502'>0.28522E+02</wgt>
<wgt id='1503'>0.31625E+02</wgt>
<wgt id='1504'>0.26484E+02</wgt>
<wgt id='1505'>0.22002E+02</wgt>
<wgt id='1506'>0.28039E+02</wgt>
<wgt id='1507'>0.20998E+02</wgt>
<wgt id='1508'>0.28222E+02</wgt>
<wgt id='1509'>0.28873E+02</wgt>
<wgt id='1510'>0.27950E+02</wgt>
<wgt id='1511'>0.27990E+02</wgt>
<wgt id='1512'>0.24097E+02</wgt>
<wgt id='1513'>0.28053E+02</wgt>
<wgt id='1514'>0.31405E+02</wgt>
<wgt id='1515'>0.25461E+02</wgt>
<wgt id='1516'>0.24079E+02</wgt>
<wgt id='1517'>0.38990E+02</wgt>
<wgt id='1518'>0.28380E+02</wgt>
<wgt id='1519'>0.23149E+02</wgt>
<wgt id='1520'>0.22715E+02</wgt>
<wgt id='1521'>0.21833E+02</wgt>
<wgt id='1522'>0.18227E+02</wgt>
<wgt id='1523'>0.20417E+02</wgt>
<wgt id='1524'>0.23372E+02</wgt>
<wgt id='1525'>0.25790E+02</wgt>
<wgt id='1526'>0.23471E+02</wgt>
<wgt id='1527'>0.36211E+02</wgt>
<wgt id='1528'>0.30572E+02</wgt>
<wgt id='1529'>0.29319E+02</wgt>
<wgt id='1530'>0.22615E+02</wgt>
<wgt id='1531'>0.23834E+02</wgt>
<wgt id='1532'>0.22855E+02</wgt>
<wgt id='1533'>0.23953E+02</wgt>
<wgt id='1534'>0.17305E+02</wgt>
<wgt id='1535'>0.31098E+02</wgt>
<wgt id='1536'>0.23303E+02</wgt>
<wgt id='1537'>0.27783E+02</wgt>
<wgt id='1538'>0.20606E+02</wgt>
<wgt id='1539'>0.23288E+02</wgt>
<wgt id='1540'>0.25248E+02</wgt>
<wgt id='1541'>0.19916E+02</wgt>
<wgt id='1542'>0.27260E+02</wgt>
<wgt id='1543'>0.25080E+02</wgt>
<wgt id='1544'>0.29142E+02</wgt>
<wgt id='1545'>0.22850E+02</wgt>
<wgt id='1546'>0.16103E+02</wgt>
<wgt id='1547'>0.31383E+02</wgt>
<wgt id='1548'>0.28787E+02</wgt>
<wgt id='1549'>0.27146E+02</wgt>
<wgt id='1550'>0.25254E+02</wgt>
<wgt id='1551'>0.27363E+02</wgt>
<wgt id='1552'>0.26005E+02</wgt>
<wgt id='1553'>0.20663E+02</wgt>
<wgt id='1554'>0.29780E+02</wgt>
<wgt id='1555'>0.26059E+02</wgt>
<wgt id='1556'>0.31485E+02</wgt>
<wgt id='1557'>0.22421E+02</wgt>
<wgt id='1558'>0.27496E+02</wgt>
<wgt id='1559'>0.24501E+02</wgt>
<wgt id='1560'>0.22885E+02</wgt>
<wgt id='1561'>0.19225E+02</wgt>
<wgt id='1562'>0.24214E+02</wgt>
<wgt id='1563'>0.27077E+02</wgt>
<wgt id='1564'>0.33383E+02</wgt>
<wgt id='1565'>0.31889E+02</wgt>
<wgt id='1566'>0.21992E+02</wgt>
<wgt id='1567'>0.21723E+02</wgt>
<wgt id='1568'>0.25480E+02</wgt>
<wgt id='1569'>0.30481E+02</wgt>
<wgt id='1570'>0.31849E+02</wgt>
<wgt id='1571'>0.19140E+02</wgt>
<wgt id='1572'>0.23695E+02</wgt>
<wgt id='1573'>0.28103E+02</wgt>
<wgt id='1574'>0.29480E+02</wgt>
<wgt id='1575'>0.25701E+02</wgt>
<wgt id='1576'>0.23158E+02</wgt>
<wgt id='1577'>0.21799E+02</wgt>
<wgt id='1578'>0.27512E+02</wgt>
<wgt id='1579'>0.24399E+02</wgt>
<wgt id='1580'>0.24629E+02</wgt>
<wgt id='1581'>0.20456E+02</wgt>
<wgt id='1582'>0.24150E+02</wgt>
<wgt id='1583'>0.27917E+02</wgt>
<wgt id='1584'>0.23316E+02</wgt>
<wgt id='1585'>0.29660E+02</wgt>
<wgt id='1586'>0.31170E+02</wgt>
<wgt id='1587'>0.31486E+02</wgt>
<wgt id='1588'>0.29595E+02</wgt>
<wgt id='1589'>0.25826E+02</wgt>
<wgt id='1590'>0.27130E+02</wgt>
<wgt id='1591'>0.26809E+02</wgt>
<wgt id='1592'>0.21675E+02</wgt>
<wgt id='1593'>0.26211E+02</wgt>
<wgt id='1594'>0.20815E+02</wgt>
<wgt id='1595'>0.33627E+02</wgt>
<wgt id='1596'>0.24728E+02</wgt>
<wgt id='1597'>0.26450E+02</wgt>
<wgt id='1598'>0.18544E+02</wgt>
<wgt id='1599'>0.26750E+02</wgt>
<wgt id='1600'>0.32739E+02</wgt>
<wgt id='1601'>0.25093E+02</wgt>
<wgt id='1602'>0.27864E+02</wgt>
<wgt id='1700'>0.23666E+02</wgt>
<wgt id='1800'>0.20940E+02</wgt>
<wgt id='1850'>0.29621E+02</wgt>
<wgt id='1900'>0.27461E+02</wgt>
<wgt id='1950'>0.28240E+02</wgt>
</rwgt>
</event>
<event>
      4   9999  2.16956E+01  3.44650E+01 -1.00000E+00  1.46659E-01
      21    -1     0     0   502   501  0.000000000E+00  0.000000000E+00  8.413680582E+02  8.413680582E+02  0.000000000E+00  0.00000E+00  9.000E+00
       3    -1     0     0   501     0  0.000000000E+00  0.000000000E+00 -1.038876163E+01  1.038876163E+01  0.000000000E+00  0.00000E+00  9.000E+00
      25     1     1     2     0     0  3.300461610E+01  9.926413658E+00  4.255491721E+02  4.448644210E+02  1.249976674E+02  0.00000E+00  9.000E+00
       3     1     1     2   502     0 -3.300461610E+01 -9.926413658E+00  4.054301245E+02  4.068923988E+02  5.394796609E-06  0.00000E+00  9.000E+00
#rwgt            1           1   23.474524584227400                1        1459           0
<rwgt>
<wgt id='1001'>0.21696E+02</wgt>
<wgt id='1002'>0.19130E+02</wgt>
<wgt id='1003'>0.24117E+02</wgt>
<wgt id='1004'>0.19780E+02</wgt>
<wgt id='1005'>0.17947E+02</wgt>
<wgt id='1006'>0.21446E+02</wgt>
<wgt id='1007'>0.23472E+02</wgt>
<wgt id='1008'>0.19779E+02</wgt>
<wgt id='1009'>0.27074E+02</wgt>
<wgt id='2000'>0.21696E+02</wgt>
<wgt id='2001'>0.21670E+02</wgt>
<wgt id='2002'>0.21714E+02</wgt>
<wgt id='2003'>0.21680E+02</wgt>
<wgt id='2004'>0.21716E+02</wgt>
<wgt id='2005'>0.21719E+02</wgt>
<wgt id='2006'>0.21704E+02</wgt>
<wgt id='2007'>0.21752E+02</wgt>
<wgt id='2008'>0.21778E+02</wgt>
<wgt id='2009'>0.21649E+02</wgt>
<wgt id='2010'>0.21648E+02</wgt>
<wgt id='2011'>0.21721E+02</wgt>
<wgt id='2012'>0.21705E+02</wgt>
<wgt id='2013'>0.21658E+02</wgt>
<wgt id='2014'>0.21666E+02</wgt>
<wgt id='2015'>0.21689E+02</wgt>
<wgt id='2016'>0.21725E+02</wgt>
<wgt id='2017'>0.21686E+02</wgt>
<wgt id='2018'>0.21663E+02</wgt>
<wgt id='2019'>0.21705E+02</wgt>
<wgt id='2020'>0.21690E+02</wgt>
<wgt id='2021'>0.21709E+02</wgt>
<wgt id='2022'>0.21697E+02</wgt>
<wgt id='2023'>0.21718E+02</wgt>
<wgt id='2024'>0.21664E+02</wgt>
<wgt id='2025'>0.21725E+02</wgt>
<wgt id='2026'>0.21746E+02</wgt>
<wgt id='2027'>0.21666E+02</wgt>
<wgt id='2028'>0.21651E+02</wgt>
<wgt id='2029'>0.21781E+02</wgt>
<wgt id='2030'>0.21694E+02</wgt>
<wgt id='2031'>0.21722E+02</wgt>
<wgt id='2032'>0.21662E+02</wgt>
<wgt id='2033'>0.21693E+02</wgt>
<wgt id='2034'>0.21749E+02</wgt>
<wgt id='2035'>0.21687E+02</wgt>
<wgt id='2036'>0.21711E+02</wgt>
<wgt id='2037'>0.21717E+02</wgt>
<wgt id='2038'>0.21672E+02</wgt>
<wgt id='2039'>0.21648E+02</wgt>
<wgt id='2040'>0.21706E+02</wgt>
<wgt id='2041'>0.21705E+02</wgt>
<wgt id='2042'>0.21689E+02</wgt>
<wgt id='2043'>0.21658E+02</wgt>
<wgt id='2044'>0.21710E+02</wgt>
<wgt id='2045'>0.21685E+02</wgt>
<wgt id='2046'>0.21741E+02</wgt>
<wgt id='2047'>0.21735E+02</wgt>
<wgt id='2048'>0.21673E+02</wgt>
<wgt id='2049'>0.21678E+02</wgt>
<wgt id='2050'>0.21723E+02</wgt>
<wgt id='2051'>0.21718E+02</wgt>
<wgt id='2052'>0.21692E+02</wgt>
<wgt id='2053'>0.21707E+02</wgt>
<wgt id='2054'>0.21708E+02</wgt>
<wgt id='2055'>0.21705E+02</wgt>
<wgt id='2056'>0.21688E+02</wgt>
<wgt id='2057'>0.21699E+02</wgt>
<wgt id='2058'>0.21699E+02</wgt>
<wgt id='2059'>0.21693E+02</wgt>
<wgt id='2060'>0.21704E+02</wgt>
<wgt id='2061'>0.21682E+02</wgt>
<wgt id='2062'>0.21702E+02</wgt>
<wgt id='2063'>0.21692E+02</wgt>
<wgt id='2064'>0.21682E+02</wgt>
<wgt id='2065'>0.21713E+02</wgt>
<wgt id='2066'>0.21684E+02</wgt>
<wgt id='2067'>0.21698E+02</wgt>
<wgt id='2068'>0.21701E+02</wgt>
<wgt id='2069'>0.21696E+02</wgt>
<wgt id='2070'>0.21695E+02</wgt>
<wgt id='2071'>0.21684E+02</wgt>
<wgt id='2072'>0.21693E+02</wgt>
<wgt id='2073'>0.21704E+02</wgt>
<wgt id='2074'>0.21700E+02</wgt>
<wgt id='2075'>0.21700E+02</wgt>
<wgt id='2076'>0.21687E+02</wgt>
<wgt id='2077'>0.21708E+02</wgt>
<wgt id='2078'>0.21687E+02</wgt>
<wgt id='2079'>0.21694E+02</wgt>
<wgt id='2080'>0.21695E+02</wgt>
<wgt id='2081'>0.21697E+02</wgt>
<wgt id='2082'>0.21694E+02</wgt>
<wgt id='2083'>0.21698E+02</wgt>
<wgt id='2084'>0.21704E+02</wgt>
<wgt id='2085'>0.21696E+02</wgt>
<wgt id='2086'>0.21690E+02</wgt>
<wgt id='2087'>0.21696E+02</wgt>
<wgt id='2088'>0.21701E+02</wgt>
<wgt id='2089'>0.21687E+02</wgt>
<wgt id='2090'>0.21699E+02</wgt>
<wgt id='2091'>0.21700E+02</wgt>
<wgt id='2092'>0.21701E+02</wgt>
<wgt id='2093'>0.21694E+02</wgt>
<wgt id='2094'>0.21697E+02</wgt>
<wgt id='2095'>0.21695E+02</wgt>
<wgt id='2096'>0.21696E+02</wgt>
<wgt id='2097'>0.21694E+02</wgt>
<wgt id='2098'>0.21697E+02</wgt>
<wgt id='2099'>0.21697E+02</wgt>
<wgt id='2100'>0.21692E+02</wgt>
<wgt id='2101'>0.21201E+02</wgt>
<wgt id='2102'>0.22205E+02</wgt>
<wgt id='2104'>0.19247E+02</wgt>
<wgt id='2105'>0.19718E+02</wgt>
<wgt id='2106'>0.20161E+02</wgt>
<wgt id='2107'>0.20599E+02</wgt>
<wgt id='2108'>0.21430E+02</wgt>
<wgt id='2109'>0.21940E+02</wgt>
<wgt id='2110'>0.22666E+02</wgt>
<wgt id='2111'>0.23160E+02</wgt>
<wgt id='3000'>0.22736E+02</wgt>
<wgt id='3001'>0.22755E+02</wgt>
<wgt id='3002'>0.22710E+02</wgt>
<wgt id='3003'>0.22719E+02</wgt>
<wgt id='3004'>0.22769E+02</wgt>
<wgt id='3005'>0.22690E+02</wgt>
<wgt id='3006'>0.22717E+02</wgt>
<wgt id='3007'>0.22653E+02</wgt>
<wgt id='3008'>0.22729E+02</wgt>
<wgt id='3009'>0.22618E+02</wgt>
<wgt id='3010'>0.22723E+02</wgt>
<wgt id='3011'>0.22763E+02</wgt>
<wgt id='3012'>0.22745E+02</wgt>
<wgt id='3013'>0.22739E+02</wgt>
<wgt id='3014'>0.22700E+02</wgt>
<wgt id='3015'>0.22724E+02</wgt>
<wgt id='3016'>0.22738E+02</wgt>
<wgt id='3017'>0.22695E+02</wgt>
<wgt id='3018'>0.22750E+02</wgt>
<wgt id='3019'>0.22784E+02</wgt>
<wgt id='3020'>0.22740E+02</wgt>
<wgt id='3021'>0.22748E+02</wgt>
<wgt id='3022'>0.22737E+02</wgt>
<wgt id='3023'>0.22725E+02</wgt>
<wgt id='3024'>0.22717E+02</wgt>
<wgt id='3025'>0.22755E+02</wgt>
<wgt id='3026'>0.22743E+02</wgt>
<wgt id='3027'>0.22742E+02</wgt>
<wgt id='3028'>0.22684E+02</wgt>
<wgt id='3029'>0.22688E+02</wgt>
<wgt id='3030'>0.22827E+02</wgt>
<wgt id='3031'>0.22781E+02</wgt>
<wgt id='3032'>0.22758E+02</wgt>
<wgt id='3033'>0.22799E+02</wgt>
<wgt id='3034'>0.22743E+02</wgt>
<wgt id='3035'>0.22827E+02</wgt>
<wgt id='3036'>0.22748E+02</wgt>
<wgt id='3037'>0.22735E+02</wgt>
<wgt id='3038'>0.22728E+02</wgt>
<wgt id='3039'>0.22714E+02</wgt>
<wgt id='3040'>0.22708E+02</wgt>
<wgt id='3041'>0.22750E+02</wgt>
<wgt id='3042'>0.22723E+02</wgt>
<wgt id='3043'>0.22729E+02</wgt>
<wgt id='3044'>0.22737E+02</wgt>
<wgt id='3045'>0.22746E+02</wgt>
<wgt id='3046'>0.22779E+02</wgt>
<wgt id='3047'>0.22746E+02</wgt>
<wgt id='3048'>0.22724E+02</wgt>
<wgt id='3049'>0.22735E+02</wgt>
<wgt id='3050'>0.22691E+02</wgt>
<wgt id='3051'>0.22786E+02</wgt>
<wgt id='3052'>0.22718E+02</wgt>
<wgt id='3053'>0.22721E+02</wgt>
<wgt id='3054'>0.22733E+02</wgt>
<wgt id='3055'>0.22731E+02</wgt>
<wgt id='3056'>0.22744E+02</wgt>
<wgt id='3057'>0.22724E+02</wgt>
<wgt id='3058'>0.22724E+02</wgt>
<wgt id='3059'>0.22736E+02</wgt>
<wgt id='3060'>0.22739E+02</wgt>
<wgt id='3061'>0.22735E+02</wgt>
<wgt id='3062'>0.22738E+02</wgt>
<wgt id='3063'>0.22751E+02</wgt>
<wgt id='3064'>0.22715E+02</wgt>
<wgt id='3065'>0.22734E+02</wgt>
<wgt id='3066'>0.22734E+02</wgt>
<wgt id='3067'>0.22713E+02</wgt>
<wgt id='3068'>0.22747E+02</wgt>
<wgt id='3069'>0.22731E+02</wgt>
<wgt id='3070'>0.22739E+02</wgt>
<wgt id='3071'>0.22734E+02</wgt>
<wgt id='3072'>0.22728E+02</wgt>
<wgt id='3073'>0.22722E+02</wgt>
<wgt id='3074'>0.22732E+02</wgt>
<wgt id='3075'>0.22724E+02</wgt>
<wgt id='3076'>0.22723E+02</wgt>
<wgt id='3077'>0.22736E+02</wgt>
<wgt id='3078'>0.22734E+02</wgt>
<wgt id='3079'>0.22748E+02</wgt>
<wgt id='3080'>0.22737E+02</wgt>
<wgt id='3081'>0.22741E+02</wgt>
<wgt id='3082'>0.22741E+02</wgt>
<wgt id='3083'>0.22727E+02</wgt>
<wgt id='3084'>0.22733E+02</wgt>
<wgt id='3085'>0.22732E+02</wgt>
<wgt id='3086'>0.22735E+02</wgt>
<wgt id='3087'>0.22740E+02</wgt>
<wgt id='3088'>0.22732E+02</wgt>
<wgt id='3089'>0.22736E+02</wgt>
<wgt id='3090'>0.22734E+02</wgt>
<wgt id='3091'>0.22737E+02</wgt>
<wgt id='3092'>0.22738E+02</wgt>
<wgt id='3093'>0.22735E+02</wgt>
<wgt id='3094'>0.22743E+02</wgt>
<wgt id='3095'>0.22733E+02</wgt>
<wgt id='3096'>0.22733E+02</wgt>
<wgt id='3097'>0.22732E+02</wgt>
<wgt id='3098'>0.22738E+02</wgt>
<wgt id='3099'>0.22738E+02</wgt>
<wgt id='3100'>0.22737E+02</wgt>
<wgt id='3101'>0.22179E+02</wgt>
<wgt id='3102'>0.23299E+02</wgt>
<wgt id='5000'>0.21302E+02</wgt>
<wgt id='5001'>0.21258E+02</wgt>
<wgt id='5002'>0.21242E+02</wgt>
<wgt id='5003'>0.21282E+02</wgt>
<wgt id='5004'>0.21284E+02</wgt>
<wgt id='5005'>0.21251E+02</wgt>
<wgt id='5006'>0.21095E+02</wgt>
<wgt id='5007'>0.21176E+02</wgt>
<wgt id='5008'>0.21344E+02</wgt>
<wgt id='5009'>0.21308E+02</wgt>
<wgt id='5010'>0.21274E+02</wgt>
<wgt id='5011'>0.21359E+02</wgt>
<wgt id='5012'>0.21198E+02</wgt>
<wgt id='5013'>0.21353E+02</wgt>
<wgt id='5014'>0.21179E+02</wgt>
<wgt id='5015'>0.21350E+02</wgt>
<wgt id='5016'>0.21097E+02</wgt>
<wgt id='5017'>0.21237E+02</wgt>
<wgt id='5018'>0.21379E+02</wgt>
<wgt id='5019'>0.21209E+02</wgt>
<wgt id='5020'>0.21397E+02</wgt>
<wgt id='5021'>0.21314E+02</wgt>
<wgt id='5022'>0.21294E+02</wgt>
<wgt id='5023'>0.21164E+02</wgt>
<wgt id='5024'>0.21450E+02</wgt>
<wgt id='5025'>0.21323E+02</wgt>
<wgt id='5026'>0.21285E+02</wgt>
<wgt id='5027'>0.21449E+02</wgt>
<wgt id='5028'>0.21047E+02</wgt>
<wgt id='5029'>0.21070E+02</wgt>
<wgt id='5030'>0.21435E+02</wgt>
<wgt id='5031'>0.21148E+02</wgt>
<wgt id='5032'>0.21515E+02</wgt>
<wgt id='5033'>0.21195E+02</wgt>
<wgt id='5034'>0.21398E+02</wgt>
<wgt id='5035'>0.21106E+02</wgt>
<wgt id='5036'>0.21471E+02</wgt>
<wgt id='5037'>0.21103E+02</wgt>
<wgt id='5038'>0.21525E+02</wgt>
<wgt id='5039'>0.21670E+02</wgt>
<wgt id='5040'>0.21118E+02</wgt>
<wgt id='5041'>0.21189E+02</wgt>
<wgt id='5042'>0.21315E+02</wgt>
<wgt id='5043'>0.21492E+02</wgt>
<wgt id='5044'>0.20942E+02</wgt>
<wgt id='5045'>0.21239E+02</wgt>
<wgt id='5046'>0.21320E+02</wgt>
<wgt id='5047'>0.21035E+02</wgt>
<wgt id='5048'>0.21600E+02</wgt>
<wgt id='5049'>0.21292E+02</wgt>
<wgt id='5050'>0.21393E+02</wgt>
<wgt id='5051'>0.21352E+02</wgt>
<wgt id='5052'>0.21295E+02</wgt>
<wgt id='5053'>0.20705E+02</wgt>
<wgt id='5054'>0.21009E+02</wgt>
<wgt id='5055'>0.21176E+02</wgt>
<wgt id='5056'>0.21485E+02</wgt>
<wgt id='5060'>0.20713E+02</wgt>
<wgt id='5070'>0.21886E+02</wgt>
<wgt id='4000'>0.22339E+02</wgt>
<wgt id='4001'>0.22351E+02</wgt>
<wgt id='4002'>0.22410E+02</wgt>
<wgt id='4003'>0.22107E+02</wgt>
<wgt id='4004'>0.22424E+02</wgt>
<wgt id='4005'>0.22475E+02</wgt>
<wgt id='4006'>0.22270E+02</wgt>
<wgt id='4007'>0.22229E+02</wgt>
<wgt id='4008'>0.22451E+02</wgt>
<wgt id='4009'>0.22090E+02</wgt>
<wgt id='4010'>0.22524E+02</wgt>
<wgt id='4011'>0.22518E+02</wgt>
<wgt id='4012'>0.22233E+02</wgt>
<wgt id='4013'>0.21769E+02</wgt>
<wgt id='4014'>0.22646E+02</wgt>
<wgt id='4015'>0.22624E+02</wgt>
<wgt id='4016'>0.22161E+02</wgt>
<wgt id='4017'>0.22033E+02</wgt>
<wgt id='4018'>0.22703E+02</wgt>
<wgt id='4019'>0.22516E+02</wgt>
<wgt id='4020'>0.22129E+02</wgt>
<wgt id='4021'>0.22336E+02</wgt>
<wgt id='4022'>0.22322E+02</wgt>
<wgt id='4023'>0.22335E+02</wgt>
<wgt id='4024'>0.22330E+02</wgt>
<wgt id='4025'>0.22309E+02</wgt>
<wgt id='4026'>0.22362E+02</wgt>
<wgt id='4027'>0.22331E+02</wgt>
<wgt id='4028'>0.22347E+02</wgt>
<wgt id='4029'>0.22287E+02</wgt>
<wgt id='4030'>0.22357E+02</wgt>
<wgt id='4031'>0.22366E+02</wgt>
<wgt id='4032'>0.22305E+02</wgt>
<wgt id='4033'>0.22310E+02</wgt>
<wgt id='4034'>0.22404E+02</wgt>
<wgt id='4035'>0.22373E+02</wgt>
<wgt id='4036'>0.22310E+02</wgt>
<wgt id='4037'>0.22360E+02</wgt>
<wgt id='4038'>0.22254E+02</wgt>
<wgt id='4039'>0.22248E+02</wgt>
<wgt id='4040'>0.22379E+02</wgt>
<wgt id='4041'>0.22361E+02</wgt>
<wgt id='4042'>0.22333E+02</wgt>
<wgt id='4043'>0.22096E+02</wgt>
<wgt id='4044'>0.22554E+02</wgt>
<wgt id='4045'>0.22298E+02</wgt>
<wgt id='4046'>0.22303E+02</wgt>
<wgt id='4047'>0.22285E+02</wgt>
<wgt id='4048'>0.22189E+02</wgt>
<wgt id='4049'>0.22144E+02</wgt>
<wgt id='4050'>0.22334E+02</wgt>
<wgt id='4051'>0.22295E+02</wgt>
<wgt id='4052'>0.22296E+02</wgt>
<wgt id='4053'>0.21606E+02</wgt>
<wgt id='4054'>0.22274E+02</wgt>
<wgt id='4055'>0.22270E+02</wgt>
<wgt id='4056'>0.22469E+02</wgt>
<wgt id='4060'>0.21680E+02</wgt>
<wgt id='4070'>0.22997E+02</wgt>
<wgt id='4080'>0.24136E+02</wgt>
<wgt id='6000'>0.22497E+02</wgt>
<wgt id='6001'>0.22531E+02</wgt>
<wgt id='6002'>0.22461E+02</wgt>
<wgt id='6003'>0.22511E+02</wgt>
<wgt id='6004'>0.22488E+02</wgt>
<wgt id='6005'>0.22524E+02</wgt>
<wgt id='6006'>0.22472E+02</wgt>
<wgt id='6007'>0.22413E+02</wgt>
<wgt id='6008'>0.22590E+02</wgt>
<wgt id='6009'>0.22603E+02</wgt>
<wgt id='6010'>0.22395E+02</wgt>
<wgt id='6011'>0.22556E+02</wgt>
<wgt id='6012'>0.22372E+02</wgt>
<wgt id='6013'>0.22465E+02</wgt>
<wgt id='6014'>0.22553E+02</wgt>
<wgt id='6015'>0.22426E+02</wgt>
<wgt id='6016'>0.22537E+02</wgt>
<wgt id='6017'>0.22353E+02</wgt>
<wgt id='6018'>0.22669E+02</wgt>
<wgt id='6019'>0.22499E+02</wgt>
<wgt id='6020'>0.22495E+02</wgt>
<wgt id='6021'>0.22459E+02</wgt>
<wgt id='6022'>0.22551E+02</wgt>
<wgt id='6023'>0.22340E+02</wgt>
<wgt id='6024'>0.22611E+02</wgt>
<wgt id='6025'>0.22536E+02</wgt>
<wgt id='6026'>0.22373E+02</wgt>
<wgt id='6027'>0.22567E+02</wgt>
<wgt id='6028'>0.22499E+02</wgt>
<wgt id='6029'>0.22528E+02</wgt>
<wgt id='6030'>0.22460E+02</wgt>
<wgt id='6031'>0.22428E+02</wgt>
<wgt id='6032'>0.22560E+02</wgt>
<wgt id='6033'>0.22562E+02</wgt>
<wgt id='6034'>0.22430E+02</wgt>
<wgt id='6035'>0.22515E+02</wgt>
<wgt id='6036'>0.22496E+02</wgt>
<wgt id='6037'>0.22551E+02</wgt>
<wgt id='6038'>0.22496E+02</wgt>
<wgt id='6039'>0.22455E+02</wgt>
<wgt id='6040'>0.22544E+02</wgt>
<wgt id='6041'>0.22443E+02</wgt>
<wgt id='6042'>0.22564E+02</wgt>
<wgt id='6043'>0.22810E+02</wgt>
<wgt id='6044'>0.22383E+02</wgt>
<wgt id='6045'>0.22475E+02</wgt>
<wgt id='6046'>0.22543E+02</wgt>
<wgt id='6047'>0.22630E+02</wgt>
<wgt id='6048'>0.22313E+02</wgt>
<wgt id='6049'>0.22555E+02</wgt>
<wgt id='6050'>0.22468E+02</wgt>
<wgt id='7000'>0.21070E+02</wgt>
<wgt id='7001'>0.21094E+02</wgt>
<wgt id='7002'>0.21043E+02</wgt>
<wgt id='7003'>0.21128E+02</wgt>
<wgt id='7004'>0.21014E+02</wgt>
<wgt id='7005'>0.21105E+02</wgt>
<wgt id='7006'>0.21057E+02</wgt>
<wgt id='7007'>0.20978E+02</wgt>
<wgt id='7008'>0.21164E+02</wgt>
<wgt id='7009'>0.21118E+02</wgt>
<wgt id='7010'>0.21024E+02</wgt>
<wgt id='7011'>0.20831E+02</wgt>
<wgt id='7012'>0.21175E+02</wgt>
<wgt id='7013'>0.21071E+02</wgt>
<wgt id='7014'>0.21072E+02</wgt>
<wgt id='7015'>0.20996E+02</wgt>
<wgt id='7016'>0.21151E+02</wgt>
<wgt id='7017'>0.20922E+02</wgt>
<wgt id='7018'>0.21150E+02</wgt>
<wgt id='7019'>0.21049E+02</wgt>
<wgt id='7020'>0.21102E+02</wgt>
<wgt id='7021'>0.21062E+02</wgt>
<wgt id='7022'>0.21076E+02</wgt>
<wgt id='7023'>0.21161E+02</wgt>
<wgt id='7024'>0.20966E+02</wgt>
<wgt id='7025'>0.21123E+02</wgt>
<wgt id='7026'>0.20945E+02</wgt>
<wgt id='7027'>0.21147E+02</wgt>
<wgt id='7028'>0.21058E+02</wgt>
<wgt id='7029'>0.21049E+02</wgt>
<wgt id='7030'>0.21099E+02</wgt>
<wgt id='7031'>0.21043E+02</wgt>
<wgt id='7032'>0.21130E+02</wgt>
<wgt id='7033'>0.21069E+02</wgt>
<wgt id='7034'>0.21091E+02</wgt>
<wgt id='7035'>0.21054E+02</wgt>
<wgt id='7036'>0.21090E+02</wgt>
<wgt id='7037'>0.21078E+02</wgt>
<wgt id='7038'>0.21080E+02</wgt>
<wgt id='7039'>0.21026E+02</wgt>
<wgt id='7040'>0.21103E+02</wgt>
<wgt id='7041'>0.21036E+02</wgt>
<wgt id='7042'>0.21121E+02</wgt>
<wgt id='7043'>0.21085E+02</wgt>
<wgt id='7044'>0.20985E+02</wgt>
<wgt id='7045'>0.20885E+02</wgt>
<wgt id='7046'>0.21218E+02</wgt>
<wgt id='7047'>0.21142E+02</wgt>
<wgt id='7048'>0.21039E+02</wgt>
<wgt id='7049'>0.21012E+02</wgt>
<wgt id='7050'>0.21137E+02</wgt>
<wgt id='7060'>0.33763E+02</wgt>
<wgt id='8000'>0.21583E+02</wgt>
<wgt id='8001'>0.21577E+02</wgt>
<wgt id='8002'>0.21589E+02</wgt>
<wgt id='8003'>0.21584E+02</wgt>
<wgt id='8004'>0.21582E+02</wgt>
<wgt id='8005'>0.21531E+02</wgt>
<wgt id='8006'>0.21577E+02</wgt>
<wgt id='8007'>0.21568E+02</wgt>
<wgt id='8008'>0.21628E+02</wgt>
<wgt id='8009'>0.21672E+02</wgt>
<wgt id='8010'>0.21580E+02</wgt>
<wgt id='8011'>0.21571E+02</wgt>
<wgt id='8012'>0.21543E+02</wgt>
<wgt id='8013'>0.21569E+02</wgt>
<wgt id='8014'>0.21591E+02</wgt>
<wgt id='8015'>0.21559E+02</wgt>
<wgt id='8016'>0.21599E+02</wgt>
<wgt id='8017'>0.21596E+02</wgt>
<wgt id='8018'>0.21605E+02</wgt>
<wgt id='8019'>0.21597E+02</wgt>
<wgt id='8020'>0.21556E+02</wgt>
<wgt id='8021'>0.21571E+02</wgt>
<wgt id='8022'>0.21540E+02</wgt>
<wgt id='8023'>0.21568E+02</wgt>
<wgt id='8024'>0.21563E+02</wgt>
<wgt id='8025'>0.21599E+02</wgt>
<wgt id='8026'>0.21617E+02</wgt>
<wgt id='8027'>0.21569E+02</wgt>
<wgt id='8028'>0.21603E+02</wgt>
<wgt id='8029'>0.21509E+02</wgt>
<wgt id='8500'>0.22494E+02</wgt>
<wgt id='8501'>0.22377E+02</wgt>
<wgt id='8502'>0.22508E+02</wgt>
<wgt id='8503'>0.22552E+02</wgt>
<wgt id='8504'>0.22452E+02</wgt>
<wgt id='8505'>0.22529E+02</wgt>
<wgt id='8506'>0.22477E+02</wgt>
<wgt id='8507'>0.22569E+02</wgt>
<wgt id='8508'>0.22514E+02</wgt>
<wgt id='8509'>0.22523E+02</wgt>
<wgt id='8510'>0.22673E+02</wgt>
<wgt id='8511'>0.22493E+02</wgt>
<wgt id='8512'>0.22455E+02</wgt>
<wgt id='8513'>0.22465E+02</wgt>
<wgt id='8514'>0.22317E+02</wgt>
<wgt id='8515'>0.22592E+02</wgt>
<wgt id='8516'>0.22496E+02</wgt>
<wgt id='8517'>0.22395E+02</wgt>
<wgt id='8518'>0.22352E+02</wgt>
<wgt id='8519'>0.22332E+02</wgt>
<wgt id='8520'>0.22488E+02</wgt>
<wgt id='8521'>0.22363E+02</wgt>
<wgt id='8522'>0.22538E+02</wgt>
<wgt id='8523'>0.22424E+02</wgt>
<wgt id='8524'>0.22459E+02</wgt>
<wgt id='8525'>0.22485E+02</wgt>
<wgt id='8526'>0.22415E+02</wgt>
<wgt id='8527'>0.22487E+02</wgt>
<wgt id='8528'>0.22433E+02</wgt>
<wgt id='8529'>0.22489E+02</wgt>
<wgt id='8530'>0.22497E+02</wgt>
<wgt id='8531'>0.22479E+02</wgt>
<wgt id='8532'>0.22496E+02</wgt>
<wgt id='8533'>0.22436E+02</wgt>
<wgt id='8534'>0.22493E+02</wgt>
<wgt id='8535'>0.22551E+02</wgt>
<wgt id='8536'>0.22479E+02</wgt>
<wgt id='8537'>0.22505E+02</wgt>
<wgt id='8538'>0.22479E+02</wgt>
<wgt id='8539'>0.22501E+02</wgt>
<wgt id='8540'>0.22491E+02</wgt>
<wgt id='8541'>0.22513E+02</wgt>
<wgt id='8542'>0.22513E+02</wgt>
<wgt id='8543'>0.22473E+02</wgt>
<wgt id='8544'>0.22514E+02</wgt>
<wgt id='8545'>0.22512E+02</wgt>
<wgt id='8546'>0.22523E+02</wgt>
<wgt id='8547'>0.22471E+02</wgt>
<wgt id='8548'>0.22481E+02</wgt>
<wgt id='8549'>0.22493E+02</wgt>
<wgt id='8550'>0.22493E+02</wgt>
<wgt id='8551'>0.22471E+02</wgt>
<wgt id='8552'>0.22494E+02</wgt>
<wgt id='8553'>0.22484E+02</wgt>
<wgt id='8554'>0.22483E+02</wgt>
<wgt id='8555'>0.22494E+02</wgt>
<wgt id='8556'>0.22491E+02</wgt>
<wgt id='8557'>0.22492E+02</wgt>
<wgt id='8558'>0.22529E+02</wgt>
<wgt id='8559'>0.22483E+02</wgt>
<wgt id='8560'>0.22459E+02</wgt>
<wgt id='8561'>0.22492E+02</wgt>
<wgt id='8562'>0.22470E+02</wgt>
<wgt id='8563'>0.22491E+02</wgt>
<wgt id='8564'>0.22485E+02</wgt>
<wgt id='8565'>0.22493E+02</wgt>
<wgt id='8566'>0.22481E+02</wgt>
<wgt id='8567'>0.22485E+02</wgt>
<wgt id='8568'>0.22505E+02</wgt>
<wgt id='8569'>0.22500E+02</wgt>
<wgt id='8570'>0.22498E+02</wgt>
<wgt id='8571'>0.22483E+02</wgt>
<wgt id='8572'>0.22482E+02</wgt>
<wgt id='8573'>0.22492E+02</wgt>
<wgt id='8574'>0.22496E+02</wgt>
<wgt id='8575'>0.22499E+02</wgt>
<wgt id='8576'>0.22485E+02</wgt>
<wgt id='8577'>0.22496E+02</wgt>
<wgt id='8578'>0.22493E+02</wgt>
<wgt id='8579'>0.22501E+02</wgt>
<wgt id='8580'>0.22500E+02</wgt>
<wgt id='8581'>0.22500E+02</wgt>
<wgt id='8582'>0.22478E+02</wgt>
<wgt id='8583'>0.22505E+02</wgt>
<wgt id='8584'>0.22498E+02</wgt>
<wgt id='8585'>0.22502E+02</wgt>
<wgt id='8586'>0.22502E+02</wgt>
<wgt id='8587'>0.22490E+02</wgt>
<wgt id='8588'>0.22489E+02</wgt>
<wgt id='8589'>0.22492E+02</wgt>
<wgt id='8590'>0.22494E+02</wgt>
<wgt id='8591'>0.22494E+02</wgt>
<wgt id='8592'>0.22492E+02</wgt>
<wgt id='8593'>0.22488E+02</wgt>
<wgt id='8594'>0.22497E+02</wgt>
<wgt id='8595'>0.22500E+02</wgt>
<wgt id='8596'>0.22490E+02</wgt>
<wgt id='8597'>0.22496E+02</wgt>
<wgt id='8598'>0.22497E+02</wgt>
<wgt id='8599'>0.22497E+02</wgt>
<wgt id='8600'>0.22493E+02</wgt>
<wgt id='8601'>0.22080E+02</wgt>
<wgt id='8602'>0.22894E+02</wgt>
<wgt id='9000'>0.21312E+02</wgt>
<wgt id='9001'>0.21332E+02</wgt>
<wgt id='9002'>0.21324E+02</wgt>
<wgt id='9003'>0.21270E+02</wgt>
<wgt id='9004'>0.21336E+02</wgt>
<wgt id='9005'>0.21312E+02</wgt>
<wgt id='9006'>0.21391E+02</wgt>
<wgt id='9007'>0.21434E+02</wgt>
<wgt id='9008'>0.21382E+02</wgt>
<wgt id='9009'>0.21300E+02</wgt>
<wgt id='9010'>0.21276E+02</wgt>
<wgt id='9011'>0.21436E+02</wgt>
<wgt id='9012'>0.21223E+02</wgt>
<wgt id='9013'>0.21224E+02</wgt>
<wgt id='9014'>0.21270E+02</wgt>
<wgt id='9015'>0.21263E+02</wgt>
<wgt id='9016'>0.21449E+02</wgt>
<wgt id='9017'>0.21196E+02</wgt>
<wgt id='9018'>0.21307E+02</wgt>
<wgt id='9019'>0.21323E+02</wgt>
<wgt id='9020'>0.21535E+02</wgt>
<wgt id='9021'>0.21299E+02</wgt>
<wgt id='9022'>0.21339E+02</wgt>
<wgt id='9023'>0.21235E+02</wgt>
<wgt id='9024'>0.21255E+02</wgt>
<wgt id='9025'>0.21329E+02</wgt>
<wgt id='9026'>0.21317E+02</wgt>
<wgt id='9027'>0.21295E+02</wgt>
<wgt id='9028'>0.21337E+02</wgt>
<wgt id='9029'>0.21340E+02</wgt>
<wgt id='9030'>0.21349E+02</wgt>
<wgt id='9031'>0.21299E+02</wgt>
<wgt id='9032'>0.21333E+02</wgt>
<wgt id='9033'>0.21342E+02</wgt>
<wgt id='9034'>0.21299E+02</wgt>
<wgt id='9035'>0.21345E+02</wgt>
<wgt id='9036'>0.21317E+02</wgt>
<wgt id='9037'>0.21336E+02</wgt>
<wgt id='9038'>0.21326E+02</wgt>
<wgt id='9039'>0.21322E+02</wgt>
<wgt id='9040'>0.21284E+02</wgt>
<wgt id='9041'>0.21312E+02</wgt>
<wgt id='9042'>0.21315E+02</wgt>
<wgt id='9043'>0.21287E+02</wgt>
<wgt id='9044'>0.21314E+02</wgt>
<wgt id='9045'>0.21318E+02</wgt>
<wgt id='9046'>0.21281E+02</wgt>
<wgt id='9047'>0.21312E+02</wgt>
<wgt id='9048'>0.21318E+02</wgt>
<wgt id='9049'>0.21302E+02</wgt>
<wgt id='9050'>0.21313E+02</wgt>
<wgt id='9051'>0.21320E+02</wgt>
<wgt id='9052'>0.21318E+02</wgt>
<wgt id='9053'>0.21312E+02</wgt>
<wgt id='9054'>0.21307E+02</wgt>
<wgt id='9055'>0.21304E+02</wgt>
<wgt id='9056'>0.21338E+02</wgt>
<wgt id='9057'>0.21315E+02</wgt>
<wgt id='9058'>0.21285E+02</wgt>
<wgt id='9059'>0.21301E+02</wgt>
<wgt id='9060'>0.21301E+02</wgt>
<wgt id='9061'>0.21316E+02</wgt>
<wgt id='9062'>0.21315E+02</wgt>
<wgt id='9063'>0.21322E+02</wgt>
<wgt id='9064'>0.21300E+02</wgt>
<wgt id='9065'>0.21311E+02</wgt>
<wgt id='9066'>0.21316E+02</wgt>
<wgt id='9067'>0.21331E+02</wgt>
<wgt id='9068'>0.21313E+02</wgt>
<wgt id='9069'>0.21327E+02</wgt>
<wgt id='9070'>0.21308E+02</wgt>
<wgt id='9071'>0.21331E+02</wgt>
<wgt id='9072'>0.21331E+02</wgt>
<wgt id='9073'>0.21304E+02</wgt>
<wgt id='9074'>0.21312E+02</wgt>
<wgt id='9075'>0.21311E+02</wgt>
<wgt id='9076'>0.21307E+02</wgt>
<wgt id='9077'>0.21314E+02</wgt>
<wgt id='9078'>0.21309E+02</wgt>
<wgt id='9079'>0.21316E+02</wgt>
<wgt id='9080'>0.21329E+02</wgt>
<wgt id='9081'>0.21312E+02</wgt>
<wgt id='9082'>0.21318E+02</wgt>
<wgt id='9083'>0.21305E+02</wgt>
<wgt id='9084'>0.21308E+02</wgt>
<wgt id='9085'>0.21309E+02</wgt>
<wgt id='9086'>0.21312E+02</wgt>
<wgt id='9087'>0.21304E+02</wgt>
<wgt id='9088'>0.21306E+02</wgt>
<wgt id='9089'>0.21308E+02</wgt>
<wgt id='9090'>0.21314E+02</wgt>
<wgt id='9091'>0.21310E+02</wgt>
<wgt id='9092'>0.21314E+02</wgt>
<wgt id='9093'>0.21309E+02</wgt>
<wgt id='9094'>0.21312E+02</wgt>
<wgt id='9095'>0.21314E+02</wgt>
<wgt id='9096'>0.21306E+02</wgt>
<wgt id='9097'>0.21315E+02</wgt>
<wgt id='9098'>0.21311E+02</wgt>
<wgt id='9099'>0.21309E+02</wgt>
<wgt id='9100'>0.21311E+02</wgt>
<wgt id='9101'>0.20987E+02</wgt>
<wgt id='9102'>0.21648E+02</wgt>
<wgt id='10000'>0.22497E+02</wgt>
<wgt id='10001'>0.22539E+02</wgt>
<wgt id='10002'>0.22375E+02</wgt>
<wgt id='10003'>0.22497E+02</wgt>
<wgt id='10004'>0.22414E+02</wgt>
<wgt id='10005'>0.22675E+02</wgt>
<wgt id='10006'>0.22435E+02</wgt>
<wgt id='10007'>0.22484E+02</wgt>
<wgt id='10008'>0.22554E+02</wgt>
<wgt id='10009'>0.22437E+02</wgt>
<wgt id='10010'>0.22535E+02</wgt>
<wgt id='10011'>0.22453E+02</wgt>
<wgt id='10012'>0.22429E+02</wgt>
<wgt id='10013'>0.22494E+02</wgt>
<wgt id='10014'>0.22492E+02</wgt>
<wgt id='10015'>0.22542E+02</wgt>
<wgt id='10016'>0.22466E+02</wgt>
<wgt id='10017'>0.22334E+02</wgt>
<wgt id='10018'>0.22547E+02</wgt>
<wgt id='10019'>0.22400E+02</wgt>
<wgt id='10020'>0.22442E+02</wgt>
<wgt id='10021'>0.22488E+02</wgt>
<wgt id='10022'>0.22402E+02</wgt>
<wgt id='10023'>0.22507E+02</wgt>
<wgt id='10024'>0.22482E+02</wgt>
<wgt id='10025'>0.22476E+02</wgt>
<wgt id='10026'>0.22565E+02</wgt>
<wgt id='10027'>0.22544E+02</wgt>
<wgt id='10028'>0.22750E+02</wgt>
<wgt id='10029'>0.22526E+02</wgt>
<wgt id='10030'>0.22485E+02</wgt>
<wgt id='10031'>0.22080E+02</wgt>
<wgt id='10032'>0.22894E+02</wgt>
<wgt id='11000'>0.21314E+02</wgt>
<wgt id='11001'>0.21061E+02</wgt>
<wgt id='11002'>0.21305E+02</wgt>
<wgt id='11003'>0.21294E+02</wgt>
<wgt id='11004'>0.21270E+02</wgt>
<wgt id='11005'>0.21139E+02</wgt>
<wgt id='11006'>0.21321E+02</wgt>
<wgt id='11007'>0.21292E+02</wgt>
<wgt id='11008'>0.21258E+02</wgt>
<wgt id='11009'>0.21294E+02</wgt>
<wgt id='11010'>0.21522E+02</wgt>
<wgt id='11011'>0.21268E+02</wgt>
<wgt id='11012'>0.21304E+02</wgt>
<wgt id='11013'>0.21344E+02</wgt>
<wgt id='11014'>0.21293E+02</wgt>
<wgt id='11015'>0.21281E+02</wgt>
<wgt id='11016'>0.21306E+02</wgt>
<wgt id='11017'>0.21396E+02</wgt>
<wgt id='11018'>0.21313E+02</wgt>
<wgt id='11019'>0.21323E+02</wgt>
<wgt id='11020'>0.21330E+02</wgt>
<wgt id='11021'>0.21332E+02</wgt>
<wgt id='11022'>0.21427E+02</wgt>
<wgt id='11023'>0.21319E+02</wgt>
<wgt id='11024'>0.21297E+02</wgt>
<wgt id='11025'>0.21284E+02</wgt>
<wgt id='11026'>0.21318E+02</wgt>
<wgt id='11027'>0.21325E+02</wgt>
<wgt id='11028'>0.21319E+02</wgt>
<wgt id='11029'>0.21277E+02</wgt>
<wgt id='11030'>0.21311E+02</wgt>
<wgt id='11031'>0.20987E+02</wgt>
<wgt id='11032'>0.21648E+02</wgt>
<wgt id='12000'>0.22443E+02</wgt>
<wgt id='12001'>0.22414E+02</wgt>
<wgt id='12002'>0.22471E+02</wgt>
<wgt id='12003'>0.22500E+02</wgt>
<wgt id='12004'>0.22385E+02</wgt>
<wgt id='12005'>0.22474E+02</wgt>
<wgt id='12006'>0.22411E+02</wgt>
<wgt id='12007'>0.22490E+02</wgt>
<wgt id='12008'>0.22396E+02</wgt>
<wgt id='12009'>0.22458E+02</wgt>
<wgt id='12010'>0.22427E+02</wgt>
<wgt id='12011'>0.22329E+02</wgt>
<wgt id='12012'>0.22555E+02</wgt>
<wgt id='12013'>0.22358E+02</wgt>
<wgt id='12014'>0.22527E+02</wgt>
<wgt id='12015'>0.22517E+02</wgt>
<wgt id='12016'>0.22374E+02</wgt>
<wgt id='12017'>0.22539E+02</wgt>
<wgt id='12018'>0.22334E+02</wgt>
<wgt id='12019'>0.22435E+02</wgt>
<wgt id='12020'>0.22450E+02</wgt>
<wgt id='12021'>0.22476E+02</wgt>
<wgt id='12022'>0.22386E+02</wgt>
<wgt id='12023'>0.22243E+02</wgt>
<wgt id='12024'>0.22536E+02</wgt>
<wgt id='12025'>0.22379E+02</wgt>
<wgt id='12026'>0.22544E+02</wgt>
<wgt id='12027'>0.22637E+02</wgt>
<wgt id='12028'>0.22271E+02</wgt>
<wgt id='12050'>0.22443E+02</wgt>
<wgt id='12051'>0.22468E+02</wgt>
<wgt id='12052'>0.22381E+02</wgt>
<wgt id='12053'>0.22463E+02</wgt>
<wgt id='12054'>0.22403E+02</wgt>
<wgt id='12055'>0.22475E+02</wgt>
<wgt id='12056'>0.22551E+02</wgt>
<wgt id='12057'>0.22402E+02</wgt>
<wgt id='12058'>0.22491E+02</wgt>
<wgt id='12059'>0.22464E+02</wgt>
<wgt id='12060'>0.22433E+02</wgt>
<wgt id='12061'>0.22350E+02</wgt>
<wgt id='12062'>0.22497E+02</wgt>
<wgt id='12063'>0.22430E+02</wgt>
<wgt id='13000'>0.21851E+02</wgt>
<wgt id='13001'>0.21834E+02</wgt>
<wgt id='13002'>0.21863E+02</wgt>
<wgt id='13003'>0.21886E+02</wgt>
<wgt id='13004'>0.21812E+02</wgt>
<wgt id='13005'>0.21902E+02</wgt>
<wgt id='13006'>0.21795E+02</wgt>
<wgt id='13007'>0.21936E+02</wgt>
<wgt id='13008'>0.21763E+02</wgt>
<wgt id='13009'>0.21805E+02</wgt>
<wgt id='13010'>0.21893E+02</wgt>
<wgt id='13011'>0.21916E+02</wgt>
<wgt id='13012'>0.21781E+02</wgt>
<wgt id='13013'>0.21781E+02</wgt>
<wgt id='13014'>0.21917E+02</wgt>
<wgt id='13015'>0.21860E+02</wgt>
<wgt id='13016'>0.21848E+02</wgt>
<wgt id='13017'>0.21816E+02</wgt>
<wgt id='13018'>0.21877E+02</wgt>
<wgt id='13019'>0.21815E+02</wgt>
<wgt id='13020'>0.21880E+02</wgt>
<wgt id='13021'>0.21832E+02</wgt>
<wgt id='13022'>0.21836E+02</wgt>
<wgt id='13023'>0.21747E+02</wgt>
<wgt id='13024'>0.21955E+02</wgt>
<wgt id='13025'>0.21642E+02</wgt>
<wgt id='13026'>0.22012E+02</wgt>
<wgt id='13027'>0.21782E+02</wgt>
<wgt id='13028'>0.21938E+02</wgt>
<wgt id='13050'>0.21851E+02</wgt>
<wgt id='13051'>0.21874E+02</wgt>
<wgt id='13052'>0.21685E+02</wgt>
<wgt id='13053'>0.21861E+02</wgt>
<wgt id='13054'>0.21834E+02</wgt>
<wgt id='13055'>0.21566E+02</wgt>
<wgt id='13056'>0.21910E+02</wgt>
<wgt id='13057'>0.21801E+02</wgt>
<wgt id='13058'>0.21944E+02</wgt>
<wgt id='13059'>0.21825E+02</wgt>
<wgt id='13060'>0.21520E+02</wgt>
<wgt id='13061'>0.21802E+02</wgt>
<wgt id='13062'>0.21996E+02</wgt>
<wgt id='13063'>0.21906E+02</wgt>
<wgt id='14000'>0.22275E+02</wgt>
<wgt id='14001'>0.22272E+02</wgt>
<wgt id='14002'>0.22268E+02</wgt>
<wgt id='14003'>0.22265E+02</wgt>
<wgt id='14004'>0.22262E+02</wgt>
<wgt id='14005'>0.22258E+02</wgt>
<wgt id='14006'>0.22255E+02</wgt>
<wgt id='14007'>0.22251E+02</wgt>
<wgt id='14008'>0.22248E+02</wgt>
<wgt id='14009'>0.22245E+02</wgt>
<wgt id='14010'>0.22241E+02</wgt>
<wgt id='14011'>0.22238E+02</wgt>
<wgt id='14012'>0.22235E+02</wgt>
<wgt id='14013'>0.22231E+02</wgt>
<wgt id='14014'>0.22228E+02</wgt>
<wgt id='14015'>0.22224E+02</wgt>
<wgt id='14016'>0.22221E+02</wgt>
<wgt id='14017'>0.22218E+02</wgt>
<wgt id='14018'>0.22214E+02</wgt>
<wgt id='14019'>0.22211E+02</wgt>
<wgt id='14020'>0.22208E+02</wgt>
<wgt id='14021'>0.22204E+02</wgt>
<wgt id='14022'>0.22201E+02</wgt>
<wgt id='14023'>0.22197E+02</wgt>
<wgt id='14024'>0.22194E+02</wgt>
<wgt id='14025'>0.22191E+02</wgt>
<wgt id='14026'>0.22187E+02</wgt>
<wgt id='14027'>0.22184E+02</wgt>
<wgt id='14028'>0.22180E+02</wgt>
<wgt id='14029'>0.22177E+02</wgt>
<wgt id='14030'>0.22174E+02</wgt>
<wgt id='15000'>0.21029E+02</wgt>
<wgt id='15001'>0.21039E+02</wgt>
<wgt id='15002'>0.21035E+02</wgt>
<wgt id='15003'>0.20991E+02</wgt>
<wgt id='15004'>0.21051E+02</wgt>
<wgt id='15005'>0.21030E+02</wgt>
<wgt id='15006'>0.21117E+02</wgt>
<wgt id='15007'>0.21157E+02</wgt>
<wgt id='15008'>0.21099E+02</wgt>
<wgt id='15009'>0.21018E+02</wgt>
<wgt id='15010'>0.20994E+02</wgt>
<wgt id='15011'>0.21161E+02</wgt>
<wgt id='15012'>0.20944E+02</wgt>
<wgt id='15013'>0.20949E+02</wgt>
<wgt id='15014'>0.20983E+02</wgt>
<wgt id='15015'>0.20961E+02</wgt>
<wgt id='15016'>0.21174E+02</wgt>
<wgt id='15017'>0.20911E+02</wgt>
<wgt id='15018'>0.21022E+02</wgt>
<wgt id='15019'>0.21047E+02</wgt>
<wgt id='15020'>0.21259E+02</wgt>
<wgt id='15021'>0.21009E+02</wgt>
<wgt id='15022'>0.21054E+02</wgt>
<wgt id='15023'>0.20956E+02</wgt>
<wgt id='15024'>0.20967E+02</wgt>
<wgt id='15025'>0.21039E+02</wgt>
<wgt id='15026'>0.21025E+02</wgt>
<wgt id='15027'>0.21020E+02</wgt>
<wgt id='15028'>0.21058E+02</wgt>
<wgt id='15029'>0.21052E+02</wgt>
<wgt id='15030'>0.21059E+02</wgt>
<wgt id='15031'>0.21027E+02</wgt>
<wgt id='15032'>0.21047E+02</wgt>
<wgt id='15033'>0.21056E+02</wgt>
<wgt id='15034'>0.21015E+02</wgt>
<wgt id='15035'>0.21059E+02</wgt>
<wgt id='15036'>0.21034E+02</wgt>
<wgt id='15037'>0.21053E+02</wgt>
<wgt id='15038'>0.21041E+02</wgt>
<wgt id='15039'>0.21036E+02</wgt>
<wgt id='15040'>0.21001E+02</wgt>
<wgt id='15041'>0.21026E+02</wgt>
<wgt id='15042'>0.21030E+02</wgt>
<wgt id='15043'>0.21010E+02</wgt>
<wgt id='15044'>0.21030E+02</wgt>
<wgt id='15045'>0.21034E+02</wgt>
<wgt id='15046'>0.21001E+02</wgt>
<wgt id='15047'>0.21026E+02</wgt>
<wgt id='15048'>0.21036E+02</wgt>
<wgt id='15049'>0.21018E+02</wgt>
<wgt id='15050'>0.21031E+02</wgt>
<wgt id='15051'>0.21036E+02</wgt>
<wgt id='15052'>0.21034E+02</wgt>
<wgt id='15053'>0.21029E+02</wgt>
<wgt id='15054'>0.21025E+02</wgt>
<wgt id='15055'>0.21022E+02</wgt>
<wgt id='15056'>0.21051E+02</wgt>
<wgt id='15057'>0.21032E+02</wgt>
<wgt id='15058'>0.21005E+02</wgt>
<wgt id='15059'>0.21020E+02</wgt>
<wgt id='15060'>0.21020E+02</wgt>
<wgt id='15061'>0.21034E+02</wgt>
<wgt id='15062'>0.21031E+02</wgt>
<wgt id='15063'>0.21037E+02</wgt>
<wgt id='15064'>0.21018E+02</wgt>
<wgt id='15065'>0.21027E+02</wgt>
<wgt id='15066'>0.21033E+02</wgt>
<wgt id='15067'>0.21046E+02</wgt>
<wgt id='15068'>0.21030E+02</wgt>
<wgt id='15069'>0.21041E+02</wgt>
<wgt id='15070'>0.21024E+02</wgt>
<wgt id='15071'>0.21048E+02</wgt>
<wgt id='15072'>0.21047E+02</wgt>
<wgt id='15073'>0.21020E+02</wgt>
<wgt id='15074'>0.21028E+02</wgt>
<wgt id='15075'>0.21028E+02</wgt>
<wgt id='15076'>0.21026E+02</wgt>
<wgt id='15077'>0.21031E+02</wgt>
<wgt id='15078'>0.21027E+02</wgt>
<wgt id='15079'>0.21032E+02</wgt>
<wgt id='15080'>0.21043E+02</wgt>
<wgt id='15081'>0.21030E+02</wgt>
<wgt id='15082'>0.21036E+02</wgt>
<wgt id='15083'>0.21021E+02</wgt>
<wgt id='15084'>0.21024E+02</wgt>
<wgt id='15085'>0.21027E+02</wgt>
<wgt id='15086'>0.21031E+02</wgt>
<wgt id='15087'>0.21020E+02</wgt>
<wgt id='15088'>0.21022E+02</wgt>
<wgt id='15089'>0.21023E+02</wgt>
<wgt id='15090'>0.21030E+02</wgt>
<wgt id='15091'>0.21026E+02</wgt>
<wgt id='15092'>0.21030E+02</wgt>
<wgt id='15093'>0.21026E+02</wgt>
<wgt id='15094'>0.21027E+02</wgt>
<wgt id='15095'>0.21031E+02</wgt>
<wgt id='15096'>0.21024E+02</wgt>
<wgt id='15097'>0.21031E+02</wgt>
<wgt id='15098'>0.21027E+02</wgt>
<wgt id='15099'>0.21026E+02</wgt>
<wgt id='15100'>0.21028E+02</wgt>
<wgt id='15101'>0.21029E+02</wgt>
<wgt id='15102'>0.21027E+02</wgt>
<wgt id='15103'>0.21029E+02</wgt>
<wgt id='15104'>0.21029E+02</wgt>
<wgt id='15105'>0.21030E+02</wgt>
<wgt id='15106'>0.21029E+02</wgt>
<wgt id='15107'>0.21028E+02</wgt>
<wgt id='1500'>0.22568E+02</wgt>
<wgt id='1501'>0.21577E+02</wgt>
<wgt id='1502'>0.22500E+02</wgt>
<wgt id='1503'>0.22798E+02</wgt>
<wgt id='1504'>0.21920E+02</wgt>
<wgt id='1505'>0.21633E+02</wgt>
<wgt id='1506'>0.22967E+02</wgt>
<wgt id='1507'>0.22740E+02</wgt>
<wgt id='1508'>0.22488E+02</wgt>
<wgt id='1509'>0.22816E+02</wgt>
<wgt id='1510'>0.22358E+02</wgt>
<wgt id='1511'>0.22162E+02</wgt>
<wgt id='1512'>0.22823E+02</wgt>
<wgt id='1513'>0.22557E+02</wgt>
<wgt id='1514'>0.22774E+02</wgt>
<wgt id='1515'>0.23151E+02</wgt>
<wgt id='1516'>0.22777E+02</wgt>
<wgt id='1517'>0.22274E+02</wgt>
<wgt id='1518'>0.22399E+02</wgt>
<wgt id='1519'>0.22791E+02</wgt>
<wgt id='1520'>0.23188E+02</wgt>
<wgt id='1521'>0.22913E+02</wgt>
<wgt id='1522'>0.22653E+02</wgt>
<wgt id='1523'>0.23871E+02</wgt>
<wgt id='1524'>0.22631E+02</wgt>
<wgt id='1525'>0.22434E+02</wgt>
<wgt id='1526'>0.22467E+02</wgt>
<wgt id='1527'>0.22149E+02</wgt>
<wgt id='1528'>0.22396E+02</wgt>
<wgt id='1529'>0.22806E+02</wgt>
<wgt id='1530'>0.23210E+02</wgt>
<wgt id='1531'>0.22580E+02</wgt>
<wgt id='1532'>0.22269E+02</wgt>
<wgt id='1533'>0.22195E+02</wgt>
<wgt id='1534'>0.22924E+02</wgt>
<wgt id='1535'>0.22961E+02</wgt>
<wgt id='1536'>0.22281E+02</wgt>
<wgt id='1537'>0.22955E+02</wgt>
<wgt id='1538'>0.22438E+02</wgt>
<wgt id='1539'>0.22150E+02</wgt>
<wgt id='1540'>0.22446E+02</wgt>
<wgt id='1541'>0.22588E+02</wgt>
<wgt id='1542'>0.22449E+02</wgt>
<wgt id='1543'>0.22419E+02</wgt>
<wgt id='1544'>0.22527E+02</wgt>
<wgt id='1545'>0.22735E+02</wgt>
<wgt id='1546'>0.23008E+02</wgt>
<wgt id='1547'>0.22124E+02</wgt>
<wgt id='1548'>0.22337E+02</wgt>
<wgt id='1549'>0.22357E+02</wgt>
<wgt id='1550'>0.22369E+02</wgt>
<wgt id='1551'>0.22395E+02</wgt>
<wgt id='1552'>0.22304E+02</wgt>
<wgt id='1553'>0.23093E+02</wgt>
<wgt id='1554'>0.22275E+02</wgt>
<wgt id='1555'>0.22114E+02</wgt>
<wgt id='1556'>0.22353E+02</wgt>
<wgt id='1557'>0.22530E+02</wgt>
<wgt id='1558'>0.22267E+02</wgt>
<wgt id='1559'>0.23199E+02</wgt>
<wgt id='1560'>0.22400E+02</wgt>
<wgt id='1561'>0.22450E+02</wgt>
<wgt id='1562'>0.22838E+02</wgt>
<wgt id='1563'>0.22286E+02</wgt>
<wgt id='1564'>0.22293E+02</wgt>
<wgt id='1565'>0.22180E+02</wgt>
<wgt id='1566'>0.22827E+02</wgt>
<wgt id='1567'>0.24058E+02</wgt>
<wgt id='1568'>0.22520E+02</wgt>
<wgt id='1569'>0.21812E+02</wgt>
<wgt id='1570'>0.22021E+02</wgt>
<wgt id='1571'>0.22338E+02</wgt>
<wgt id='1572'>0.22873E+02</wgt>
<wgt id='1573'>0.21570E+02</wgt>
<wgt id='1574'>0.22984E+02</wgt>
<wgt id='1575'>0.22295E+02</wgt>
<wgt id='1576'>0.22452E+02</wgt>
<wgt id='1577'>0.22833E+02</wgt>
<wgt id='1578'>0.22878E+02</wgt>
<wgt id='1579'>0.22201E+02</wgt>
<wgt id='1580'>0.22553E+02</wgt>
<wgt id='1581'>0.22896E+02</wgt>
<wgt id='1582'>0.22098E+02</wgt>
<wgt id='1583'>0.23062E+02</wgt>
<wgt id='1584'>0.22412E+02</wgt>
<wgt id='1585'>0.22290E+02</wgt>
<wgt id='1586'>0.22373E+02</wgt>
<wgt id='1587'>0.22753E+02</wgt>
<wgt id='1588'>0.22370E+02</wgt>
<wgt id='1589'>0.23102E+02</wgt>
<wgt id='1590'>0.22438E+02</wgt>
<wgt id='1591'>0.22180E+02</wgt>
<wgt id='1592'>0.22278E+02</wgt>
<wgt id='1593'>0.22535E+02</wgt>
<wgt id='1594'>0.23294E+02</wgt>
<wgt id='1595'>0.22466E+02</wgt>
<wgt id='1596'>0.22694E+02</wgt>
<wgt id='1597'>0.22272E+02</wgt>
<wgt id='1598'>0.22713E+02</wgt>
<wgt id='1599'>0.22492E+02</wgt>
<wgt id='1600'>0.22830E+02</wgt>
<wgt id='1601'>0.22213E+02</wgt>
<wgt id='1602'>0.22700E+02</wgt>
<wgt id='1700'>0.21508E+02</wgt>
<wgt id='1800'>0.26067E+02</wgt>
<wgt id='1850'>0.31230E+02</wgt>
<wgt id='1900'>0.27674E+02</wgt>
<wgt id='1950'>0.31230E+02</wgt>
</rwgt>
</event>
<event>
      4   9999  2.16956E+01  2.24411E+01 -1.00000E+00  1.59591E-01
      21    -1     0     0   502   501  0.000000000E+00  0.000000000E+00  2.330134553E+02  2.330134553E+02  0.000000000E+00  0.00000E+00  9.000E+00
      21    -1     0     0   501   511  0.000000000E+00  0.000000000E+00 -2.504938848E+01  2.504938848E+01  0.000000000E+00  0.00000E+00  9.000E+00
      25     1     1     2     0     0 -1.299214946E+01  1.829771551E+01  1.931931497E+02  2.311968368E+02  1.249991276E+02  0.00000E+00  9.000E+00
      21     1     1     2   502   511  1.299214946E+01 -1.829771551E+01  1.477091706E+01  2.686600699E+01  5.057621821E-07  0.00000E+00  9.000E+00
#rwgt            1           1   17.108632606882416                1        1612           0
<rwgt>
<wgt id='1001'>0.21696E+02</wgt>
<wgt id='1002'>0.23408E+02</wgt>
<wgt id='1003'>0.19809E+02</wgt>
<wgt id='1004'>0.18551E+02</wgt>
<wgt id='1005'>0.19930E+02</wgt>
<wgt id='1006'>0.17000E+02</wgt>
<wgt id='1007'>0.25700E+02</wgt>
<wgt id='1008'>0.27881E+02</wgt>
<wgt id='1009'>0.23351E+02</wgt>
<wgt id='2000'>0.21696E+02</wgt>
<wgt id='2001'>0.21663E+02</wgt>
<wgt id='2002'>0.21761E+02</wgt>
<wgt id='2003'>0.21745E+02</wgt>
<wgt id='2004'>0.21708E+02</wgt>
<wgt id='2005'>0.21669E+02</wgt>
<wgt id='2006'>0.21661E+02</wgt>
<wgt id='2007'>0.21646E+02</wgt>
<wgt id='2008'>0.21695E+02</wgt>
<wgt id='2009'>0.21694E+02</wgt>
<wgt id='2010'>0.21675E+02</wgt>
<wgt id='2011'>0.21766E+02</wgt>
<wgt id='2012'>0.21772E+02</wgt>
<wgt id='2013'>0.21791E+02</wgt>
<wgt id='2014'>0.21753E+02</wgt>
<wgt id='2015'>0.21738E+02</wgt>
<wgt id='2016'>0.21691E+02</wgt>
<wgt id='2017'>0.21694E+02</wgt>
<wgt id='2018'>0.21747E+02</wgt>
<wgt id='2019'>0.21689E+02</wgt>
<wgt id='2020'>0.21773E+02</wgt>
<wgt id='2021'>0.21658E+02</wgt>
<wgt id='2022'>0.21762E+02</wgt>
<wgt id='2023'>0.21737E+02</wgt>
<wgt id='2024'>0.21700E+02</wgt>
<wgt id='2025'>0.21769E+02</wgt>
<wgt id='2026'>0.21742E+02</wgt>
<wgt id='2027'>0.21673E+02</wgt>
<wgt id='2028'>0.21665E+02</wgt>
<wgt id='2029'>0.21713E+02</wgt>
<wgt id='2030'>0.21705E+02</wgt>
<wgt id='2031'>0.21709E+02</wgt>
<wgt id='2032'>0.21693E+02</wgt>
<wgt id='2033'>0.21700E+02</wgt>
<wgt id='2034'>0.21702E+02</wgt>
<wgt id='2035'>0.21692E+02</wgt>
<wgt id='2036'>0.21697E+02</wgt>
<wgt id='2037'>0.21700E+02</wgt>
<wgt id='2038'>0.21699E+02</wgt>
<wgt id='2039'>0.21693E+02</wgt>
<wgt id='2040'>0.21694E+02</wgt>
<wgt id='2041'>0.21690E+02</wgt>
<wgt id='2042'>0.21679E+02</wgt>
<wgt id='2043'>0.21704E+02</wgt>
<wgt id='2044'>0.21706E+02</wgt>
<wgt id='2045'>0.21695E+02</wgt>
<wgt id='2046'>0.21706E+02</wgt>
<wgt id='2047'>0.21706E+02</wgt>
<wgt id='2048'>0.21696E+02</wgt>
<wgt id='2049'>0.21696E+02</wgt>
<wgt id='2050'>0.21705E+02</wgt>
<wgt id='2051'>0.21701E+02</wgt>
<wgt id='2052'>0.21687E+02</wgt>
<wgt id='2053'>0.21692E+02</wgt>
<wgt id='2054'>0.21695E+02</wgt>
<wgt id='2055'>0.21699E+02</wgt>
<wgt id='2056'>0.21696E+02</wgt>
<wgt id='2057'>0.21692E+02</wgt>
<wgt id='2058'>0.21699E+02</wgt>
<wgt id='2059'>0.21693E+02</wgt>
<wgt id='2060'>0.21696E+02</wgt>
<wgt id='2061'>0.21694E+02</wgt>
<wgt id='2062'>0.21700E+02</wgt>
<wgt id='2063'>0.21692E+02</wgt>
<wgt id='2064'>0.21694E+02</wgt>
<wgt id='2065'>0.21702E+02</wgt>
<wgt id='2066'>0.21696E+02</wgt>
<wgt id='2067'>0.21695E+02</wgt>
<wgt id='2068'>0.21699E+02</wgt>
<wgt id='2069'>0.21694E+02</wgt>
<wgt id='2070'>0.21692E+02</wgt>
<wgt id='2071'>0.21688E+02</wgt>
<wgt id='2072'>0.21697E+02</wgt>
<wgt id='2073'>0.21696E+02</wgt>
<wgt id='2074'>0.21688E+02</wgt>
<wgt id='2075'>0.21696E+02</wgt>
<wgt id='2076'>0.21692E+02</wgt>
<wgt id='2077'>0.21694E+02</wgt>
<wgt id='2078'>0.21696E+02</wgt>
<wgt id='2079'>0.21697E+02</wgt>
<wgt id='2080'>0.21696E+02</wgt>
<wgt id='2081'>0.21697E+02</wgt>
<wgt id='2082'>0.21697E+02</wgt>
<wgt id='2083'>0.21697E+02</wgt>
<wgt id='2084'>0.21697E+02</wgt>
<wgt id='2085'>0.21695E+02</wgt>
<wgt id='2086'>0.21695E+02</wgt>
<wgt id='2087'>0.21695E+02</wgt>
<wgt id='2088'>0.21697E+02</wgt>
<wgt id='2089'>0.21695E+02</wgt>
<wgt id='2090'>0.21696E+02</wgt>
<wgt id='2091'>0.21695E+02</wgt>
<wgt id='2092'>0.21697E+02</wgt>
<wgt id='2093'>0.21695E+02</wgt>
<wgt id='2094'>0.21698E+02</wgt>
<wgt id='2095'>0.21696E+02</wgt>
<wgt id='2096'>0.21695E+02</wgt>
<wgt id='2097'>0.21697E+02</wgt>
<wgt id='2098'>0.21694E+02</wgt>
<wgt id='2099'>0.21696E+02</wgt>
<wgt id='2100'>0.21696E+02</wgt>
<wgt id='2101'>0.21119E+02</wgt>
<wgt id='2102'>0.22217E+02</wgt>
<wgt id='2104'>0.19053E+02</wgt>
<wgt id='2105'>0.19536E+02</wgt>
<wgt id='2106'>0.20076E+02</wgt>
<wgt id='2107'>0.20635E+02</wgt>
<wgt id='2108'>0.21447E+02</wgt>
<wgt id='2109'>0.22005E+02</wgt>
<wgt id='2110'>0.22706E+02</wgt>
<wgt id='2111'>0.23247E+02</wgt>
<wgt id='3000'>0.22662E+02</wgt>
<wgt id='3001'>0.22724E+02</wgt>
<wgt id='3002'>0.22594E+02</wgt>
<wgt id='3003'>0.22718E+02</wgt>
<wgt id='3004'>0.22696E+02</wgt>
<wgt id='3005'>0.22727E+02</wgt>
<wgt id='3006'>0.22680E+02</wgt>
<wgt id='3007'>0.22678E+02</wgt>
<wgt id='3008'>0.22621E+02</wgt>
<wgt id='3009'>0.22612E+02</wgt>
<wgt id='3010'>0.22605E+02</wgt>
<wgt id='3011'>0.22699E+02</wgt>
<wgt id='3012'>0.22770E+02</wgt>
<wgt id='3013'>0.22559E+02</wgt>
<wgt id='3014'>0.22713E+02</wgt>
<wgt id='3015'>0.22689E+02</wgt>
<wgt id='3016'>0.22676E+02</wgt>
<wgt id='3017'>0.22718E+02</wgt>
<wgt id='3018'>0.22705E+02</wgt>
<wgt id='3019'>0.22599E+02</wgt>
<wgt id='3020'>0.22606E+02</wgt>
<wgt id='3021'>0.22587E+02</wgt>
<wgt id='3022'>0.22657E+02</wgt>
<wgt id='3023'>0.22614E+02</wgt>
<wgt id='3024'>0.22606E+02</wgt>
<wgt id='3025'>0.22660E+02</wgt>
<wgt id='3026'>0.22703E+02</wgt>
<wgt id='3027'>0.22668E+02</wgt>
<wgt id='3028'>0.22599E+02</wgt>
<wgt id='3029'>0.22655E+02</wgt>
<wgt id='3030'>0.22681E+02</wgt>
<wgt id='3031'>0.22671E+02</wgt>
<wgt id='3032'>0.22677E+02</wgt>
<wgt id='3033'>0.22673E+02</wgt>
<wgt id='3034'>0.22675E+02</wgt>
<wgt id='3035'>0.22672E+02</wgt>
<wgt id='3036'>0.22666E+02</wgt>
<wgt id='3037'>0.22663E+02</wgt>
<wgt id='3038'>0.22662E+02</wgt>
<wgt id='3039'>0.22668E+02</wgt>
<wgt id='3040'>0.22661E+02</wgt>
<wgt id='3041'>0.22660E+02</wgt>
<wgt id='3042'>0.22647E+02</wgt>
<wgt id='3043'>0.22647E+02</wgt>
<wgt id='3044'>0.22672E+02</wgt>
<wgt id='3045'>0.22674E+02</wgt>
<wgt id='3046'>0.22667E+02</wgt>
<wgt id='3047'>0.22658E+02</wgt>
<wgt id='3048'>0.22670E+02</wgt>
<wgt id='3049'>0.22657E+02</wgt>
<wgt id='3050'>0.22660E+02</wgt>
<wgt id='3051'>0.22679E+02</wgt>
<wgt id='3052'>0.22659E+02</wgt>
<wgt id='3053'>0.22660E+02</wgt>
<wgt id='3054'>0.22658E+02</wgt>
<wgt id='3055'>0.22667E+02</wgt>
<wgt id='3056'>0.22666E+02</wgt>
<wgt id='3057'>0.22658E+02</wgt>
<wgt id='3058'>0.22658E+02</wgt>
<wgt id='3059'>0.22664E+02</wgt>
<wgt id='3060'>0.22664E+02</wgt>
<wgt id='3061'>0.22669E+02</wgt>
<wgt id='3062'>0.22664E+02</wgt>
<wgt id='3063'>0.22666E+02</wgt>
<wgt id='3064'>0.22662E+02</wgt>
<wgt id='3065'>0.22665E+02</wgt>
<wgt id='3066'>0.22665E+02</wgt>
<wgt id='3067'>0.22656E+02</wgt>
<wgt id='3068'>0.22661E+02</wgt>
<wgt id='3069'>0.22656E+02</wgt>
<wgt id='3070'>0.22656E+02</wgt>
<wgt id='3071'>0.22663E+02</wgt>
<wgt id='3072'>0.22667E+02</wgt>
<wgt id='3073'>0.22662E+02</wgt>
<wgt id='3074'>0.22666E+02</wgt>
<wgt id='3075'>0.22666E+02</wgt>
<wgt id='3076'>0.22661E+02</wgt>
<wgt id='3077'>0.22660E+02</wgt>
<wgt id='3078'>0.22667E+02</wgt>
<wgt id='3079'>0.22661E+02</wgt>
<wgt id='3080'>0.22661E+02</wgt>
<wgt id='3081'>0.22662E+02</wgt>
<wgt id='3082'>0.22661E+02</wgt>
<wgt id='3083'>0.22661E+02</wgt>
<wgt id='3084'>0.22660E+02</wgt>
<wgt id='3085'>0.22662E+02</wgt>
<wgt id='3086'>0.22662E+02</wgt>
<wgt id='3087'>0.22661E+02</wgt>
<wgt id='3088'>0.22661E+02</wgt>
<wgt id='3089'>0.22662E+02</wgt>
<wgt id='3090'>0.22662E+02</wgt>
<wgt id='3091'>0.22663E+02</wgt>
<wgt id='3092'>0.22662E+02</wgt>
<wgt id='3093'>0.22661E+02</wgt>
<wgt id='3094'>0.22664E+02</wgt>
<wgt id='3095'>0.22663E+02</wgt>
<wgt id='3096'>0.22662E+02</wgt>
<wgt id='3097'>0.22660E+02</wgt>
<wgt id='3098'>0.22663E+02</wgt>
<wgt id='3099'>0.22664E+02</wgt>
<wgt id='3100'>0.22663E+02</wgt>
<wgt id='3101'>0.22073E+02</wgt>
<wgt id='3102'>0.23324E+02</wgt>
<wgt id='5000'>0.21028E+02</wgt>
<wgt id='5001'>0.20966E+02</wgt>
<wgt id='5002'>0.20988E+02</wgt>
<wgt id='5003'>0.20930E+02</wgt>
<wgt id='5004'>0.21035E+02</wgt>
<wgt id='5005'>0.20665E+02</wgt>
<wgt id='5006'>0.21163E+02</wgt>
<wgt id='5007'>0.21054E+02</wgt>
<wgt id='5008'>0.20858E+02</wgt>
<wgt id='5009'>0.21211E+02</wgt>
<wgt id='5010'>0.20920E+02</wgt>
<wgt id='5011'>0.21005E+02</wgt>
<wgt id='5012'>0.21007E+02</wgt>
<wgt id='5013'>0.20672E+02</wgt>
<wgt id='5014'>0.21091E+02</wgt>
<wgt id='5015'>0.21162E+02</wgt>
<wgt id='5016'>0.20611E+02</wgt>
<wgt id='5017'>0.21021E+02</wgt>
<wgt id='5018'>0.21035E+02</wgt>
<wgt id='5019'>0.20991E+02</wgt>
<wgt id='5020'>0.21059E+02</wgt>
<wgt id='5021'>0.21088E+02</wgt>
<wgt id='5022'>0.20989E+02</wgt>
<wgt id='5023'>0.20961E+02</wgt>
<wgt id='5024'>0.21095E+02</wgt>
<wgt id='5025'>0.21014E+02</wgt>
<wgt id='5026'>0.21038E+02</wgt>
<wgt id='5027'>0.21226E+02</wgt>
<wgt id='5028'>0.20691E+02</wgt>
<wgt id='5029'>0.20661E+02</wgt>
<wgt id='5030'>0.21248E+02</wgt>
<wgt id='5031'>0.20811E+02</wgt>
<wgt id='5032'>0.21340E+02</wgt>
<wgt id='5033'>0.20901E+02</wgt>
<wgt id='5034'>0.21133E+02</wgt>
<wgt id='5035'>0.20778E+02</wgt>
<wgt id='5036'>0.21230E+02</wgt>
<wgt id='5037'>0.20929E+02</wgt>
<wgt id='5038'>0.21129E+02</wgt>
<wgt id='5039'>0.21381E+02</wgt>
<wgt id='5040'>0.20847E+02</wgt>
<wgt id='5041'>0.20860E+02</wgt>
<wgt id='5042'>0.21043E+02</wgt>
<wgt id='5043'>0.21189E+02</wgt>
<wgt id='5044'>0.20557E+02</wgt>
<wgt id='5045'>0.21561E+02</wgt>
<wgt id='5046'>0.20841E+02</wgt>
<wgt id='5047'>0.21154E+02</wgt>
<wgt id='5048'>0.21115E+02</wgt>
<wgt id='5049'>0.21043E+02</wgt>
<wgt id='5050'>0.21063E+02</wgt>
<wgt id='5051'>0.21073E+02</wgt>
<wgt id='5052'>0.21020E+02</wgt>
<wgt id='5053'>0.20807E+02</wgt>
<wgt id='5054'>0.21275E+02</wgt>
<wgt id='5055'>0.20898E+02</wgt>
<wgt id='5056'>0.21187E+02</wgt>
<wgt id='5060'>0.20462E+02</wgt>
<wgt id='5070'>0.21546E+02</wgt>
<wgt id='4000'>0.22084E+02</wgt>
<wgt id='4001'>0.22104E+02</wgt>
<wgt id='4002'>0.22140E+02</wgt>
<wgt id='4003'>0.22385E+02</wgt>
<wgt id='4004'>0.21922E+02</wgt>
<wgt id='4005'>0.22147E+02</wgt>
<wgt id='4006'>0.22037E+02</wgt>
<wgt id='4007'>0.22280E+02</wgt>
<wgt id='4008'>0.21995E+02</wgt>
<wgt id='4009'>0.21707E+02</wgt>
<wgt id='4010'>0.22316E+02</wgt>
<wgt id='4011'>0.22405E+02</wgt>
<wgt id='4012'>0.21895E+02</wgt>
<wgt id='4013'>0.21373E+02</wgt>
<wgt id='4014'>0.22487E+02</wgt>
<wgt id='4015'>0.22312E+02</wgt>
<wgt id='4016'>0.21935E+02</wgt>
<wgt id='4017'>0.21847E+02</wgt>
<wgt id='4018'>0.22365E+02</wgt>
<wgt id='4019'>0.22346E+02</wgt>
<wgt id='4020'>0.21791E+02</wgt>
<wgt id='4021'>0.22131E+02</wgt>
<wgt id='4022'>0.21979E+02</wgt>
<wgt id='4023'>0.21990E+02</wgt>
<wgt id='4024'>0.22166E+02</wgt>
<wgt id='4025'>0.21884E+02</wgt>
<wgt id='4026'>0.22263E+02</wgt>
<wgt id='4027'>0.22020E+02</wgt>
<wgt id='4028'>0.22168E+02</wgt>
<wgt id='4029'>0.21938E+02</wgt>
<wgt id='4030'>0.22134E+02</wgt>
<wgt id='4031'>0.22121E+02</wgt>
<wgt id='4032'>0.22035E+02</wgt>
<wgt id='4033'>0.22051E+02</wgt>
<wgt id='4034'>0.22153E+02</wgt>
<wgt id='4035'>0.22335E+02</wgt>
<wgt id='4036'>0.21843E+02</wgt>
<wgt id='4037'>0.22229E+02</wgt>
<wgt id='4038'>0.21835E+02</wgt>
<wgt id='4039'>0.22065E+02</wgt>
<wgt id='4040'>0.22065E+02</wgt>
<wgt id='4041'>0.22231E+02</wgt>
<wgt id='4042'>0.21952E+02</wgt>
<wgt id='4043'>0.22233E+02</wgt>
<wgt id='4044'>0.21952E+02</wgt>
<wgt id='4045'>0.21801E+02</wgt>
<wgt id='4046'>0.22035E+02</wgt>
<wgt id='4047'>0.21884E+02</wgt>
<wgt id='4048'>0.22141E+02</wgt>
<wgt id='4049'>0.22033E+02</wgt>
<wgt id='4050'>0.21796E+02</wgt>
<wgt id='4051'>0.22040E+02</wgt>
<wgt id='4052'>0.22043E+02</wgt>
<wgt id='4053'>0.21496E+02</wgt>
<wgt id='4054'>0.22186E+02</wgt>
<wgt id='4055'>0.21930E+02</wgt>
<wgt id='4056'>0.22263E+02</wgt>
<wgt id='4060'>0.21428E+02</wgt>
<wgt id='4070'>0.22707E+02</wgt>
<wgt id='4080'>0.21986E+02</wgt>
<wgt id='6000'>0.22424E+02</wgt>
<wgt id='6001'>0.22438E+02</wgt>
<wgt id='6002'>0.22408E+02</wgt>
<wgt id='6003'>0.22434E+02</wgt>
<wgt id='6004'>0.22416E+02</wgt>
<wgt id='6005'>0.22477E+02</wgt>
<wgt id='6006'>0.22373E+02</wgt>
<wgt id='6007'>0.22335E+02</wgt>
<wgt id='6008'>0.22523E+02</wgt>
<wgt id='6009'>0.22497E+02</wgt>
<wgt id='6010'>0.22351E+02</wgt>
<wgt id='6011'>0.22471E+02</wgt>
<wgt id='6012'>0.22322E+02</wgt>
<wgt id='6013'>0.22400E+02</wgt>
<wgt id='6014'>0.22466E+02</wgt>
<wgt id='6015'>0.22357E+02</wgt>
<wgt id='6016'>0.22461E+02</wgt>
<wgt id='6017'>0.22298E+02</wgt>
<wgt id='6018'>0.22572E+02</wgt>
<wgt id='6019'>0.22449E+02</wgt>
<wgt id='6020'>0.22401E+02</wgt>
<wgt id='6021'>0.22377E+02</wgt>
<wgt id='6022'>0.22488E+02</wgt>
<wgt id='6023'>0.22271E+02</wgt>
<wgt id='6024'>0.22531E+02</wgt>
<wgt id='6025'>0.22257E+02</wgt>
<wgt id='6026'>0.22542E+02</wgt>
<wgt id='6027'>0.22482E+02</wgt>
<wgt id='6028'>0.22423E+02</wgt>
<wgt id='6029'>0.22525E+02</wgt>
<wgt id='6030'>0.22306E+02</wgt>
<wgt id='6031'>0.22422E+02</wgt>
<wgt id='6032'>0.22417E+02</wgt>
<wgt id='6033'>0.22471E+02</wgt>
<wgt id='6034'>0.22375E+02</wgt>
<wgt id='6035'>0.22419E+02</wgt>
<wgt id='6036'>0.22473E+02</wgt>
<wgt id='6037'>0.22462E+02</wgt>
<wgt id='6038'>0.22421E+02</wgt>
<wgt id='6039'>0.22397E+02</wgt>
<wgt id='6040'>0.22452E+02</wgt>
<wgt id='6041'>0.22376E+02</wgt>
<wgt id='6042'>0.22482E+02</wgt>
<wgt id='6043'>0.22703E+02</wgt>
<wgt id='6044'>0.22296E+02</wgt>
<wgt id='6045'>0.22406E+02</wgt>
<wgt id='6046'>0.22467E+02</wgt>
<wgt id='6047'>0.22468E+02</wgt>
<wgt id='6048'>0.22217E+02</wgt>
<wgt id='6049'>0.22447E+02</wgt>
<wgt id='6050'>0.22402E+02</wgt>
<wgt id='7000'>0.21114E+02</wgt>
<wgt id='7001'>0.21114E+02</wgt>
<wgt id='7002'>0.21115E+02</wgt>
<wgt id='7003'>0.21178E+02</wgt>
<wgt id='7004'>0.21051E+02</wgt>
<wgt id='7005'>0.21154E+02</wgt>
<wgt id='7006'>0.21099E+02</wgt>
<wgt id='7007'>0.21033E+02</wgt>
<wgt id='7008'>0.21195E+02</wgt>
<wgt id='7009'>0.21150E+02</wgt>
<wgt id='7010'>0.21079E+02</wgt>
<wgt id='7011'>0.20919E+02</wgt>
<wgt id='7012'>0.21199E+02</wgt>
<wgt id='7013'>0.21114E+02</wgt>
<wgt id='7014'>0.21114E+02</wgt>
<wgt id='7015'>0.21056E+02</wgt>
<wgt id='7016'>0.21177E+02</wgt>
<wgt id='7017'>0.21040E+02</wgt>
<wgt id='7018'>0.21153E+02</wgt>
<wgt id='7019'>0.21090E+02</wgt>
<wgt id='7020'>0.21148E+02</wgt>
<wgt id='7021'>0.21107E+02</wgt>
<wgt id='7022'>0.21118E+02</wgt>
<wgt id='7023'>0.21306E+02</wgt>
<wgt id='7024'>0.20922E+02</wgt>
<wgt id='7025'>0.21193E+02</wgt>
<wgt id='7026'>0.20922E+02</wgt>
<wgt id='7027'>0.21197E+02</wgt>
<wgt id='7028'>0.21081E+02</wgt>
<wgt id='7029'>0.21044E+02</wgt>
<wgt id='7030'>0.21289E+02</wgt>
<wgt id='7031'>0.21103E+02</wgt>
<wgt id='7032'>0.21141E+02</wgt>
<wgt id='7033'>0.21095E+02</wgt>
<wgt id='7034'>0.21162E+02</wgt>
<wgt id='7035'>0.21143E+02</wgt>
<wgt id='7036'>0.21111E+02</wgt>
<wgt id='7037'>0.21121E+02</wgt>
<wgt id='7038'>0.21120E+02</wgt>
<wgt id='7039'>0.21086E+02</wgt>
<wgt id='7040'>0.21134E+02</wgt>
<wgt id='7041'>0.21076E+02</wgt>
<wgt id='7042'>0.21144E+02</wgt>
<wgt id='7043'>0.21131E+02</wgt>
<wgt id='7044'>0.21014E+02</wgt>
<wgt id='7045'>0.20932E+02</wgt>
<wgt id='7046'>0.21191E+02</wgt>
<wgt id='7047'>0.21149E+02</wgt>
<wgt id='7048'>0.21093E+02</wgt>
<wgt id='7049'>0.21072E+02</wgt>
<wgt id='7050'>0.21105E+02</wgt>
<wgt id='7060'>0.32632E+02</wgt>
<wgt id='8000'>0.21373E+02</wgt>
<wgt id='8001'>0.21367E+02</wgt>
<wgt id='8002'>0.21379E+02</wgt>
<wgt id='8003'>0.21374E+02</wgt>
<wgt id='8004'>0.21372E+02</wgt>
<wgt id='8005'>0.21323E+02</wgt>
<wgt id='8006'>0.21363E+02</wgt>
<wgt id='8007'>0.21352E+02</wgt>
<wgt id='8008'>0.21411E+02</wgt>
<wgt id='8009'>0.21452E+02</wgt>
<wgt id='8010'>0.21371E+02</wgt>
<wgt id='8011'>0.21363E+02</wgt>
<wgt id='8012'>0.21344E+02</wgt>
<wgt id='8013'>0.21364E+02</wgt>
<wgt id='8014'>0.21368E+02</wgt>
<wgt id='8015'>0.21357E+02</wgt>
<wgt id='8016'>0.21381E+02</wgt>
<wgt id='8017'>0.21375E+02</wgt>
<wgt id='8018'>0.21378E+02</wgt>
<wgt id='8019'>0.21404E+02</wgt>
<wgt id='8020'>0.21312E+02</wgt>
<wgt id='8021'>0.21373E+02</wgt>
<wgt id='8022'>0.21263E+02</wgt>
<wgt id='8023'>0.21390E+02</wgt>
<wgt id='8024'>0.21403E+02</wgt>
<wgt id='8025'>0.21433E+02</wgt>
<wgt id='8026'>0.21413E+02</wgt>
<wgt id='8027'>0.21343E+02</wgt>
<wgt id='8028'>0.21393E+02</wgt>
<wgt id='8029'>0.21229E+02</wgt>
<wgt id='8500'>0.22280E+02</wgt>
<wgt id='8501'>0.22215E+02</wgt>
<wgt id='8502'>0.22438E+02</wgt>
<wgt id='8503'>0.22396E+02</wgt>
<wgt id='8504'>0.22233E+02</wgt>
<wgt id='8505'>0.22217E+02</wgt>
<wgt id='8506'>0.22252E+02</wgt>
<wgt id='8507'>0.22356E+02</wgt>
<wgt id='8508'>0.22453E+02</wgt>
<wgt id='8509'>0.22221E+02</wgt>
<wgt id='8510'>0.22582E+02</wgt>
<wgt id='8511'>0.22295E+02</wgt>
<wgt id='8512'>0.22074E+02</wgt>
<wgt id='8513'>0.22300E+02</wgt>
<wgt id='8514'>0.22110E+02</wgt>
<wgt id='8515'>0.22323E+02</wgt>
<wgt id='8516'>0.22325E+02</wgt>
<wgt id='8517'>0.22201E+02</wgt>
<wgt id='8518'>0.22217E+02</wgt>
<wgt id='8519'>0.22230E+02</wgt>
<wgt id='8520'>0.22289E+02</wgt>
<wgt id='8521'>0.22166E+02</wgt>
<wgt id='8522'>0.22300E+02</wgt>
<wgt id='8523'>0.22232E+02</wgt>
<wgt id='8524'>0.22265E+02</wgt>
<wgt id='8525'>0.22250E+02</wgt>
<wgt id='8526'>0.22253E+02</wgt>
<wgt id='8527'>0.22289E+02</wgt>
<wgt id='8528'>0.22220E+02</wgt>
<wgt id='8529'>0.22260E+02</wgt>
<wgt id='8530'>0.22273E+02</wgt>
<wgt id='8531'>0.22272E+02</wgt>
<wgt id='8532'>0.22281E+02</wgt>
<wgt id='8533'>0.22235E+02</wgt>
<wgt id='8534'>0.22286E+02</wgt>
<wgt id='8535'>0.22331E+02</wgt>
<wgt id='8536'>0.22263E+02</wgt>
<wgt id='8537'>0.22288E+02</wgt>
<wgt id='8538'>0.22262E+02</wgt>
<wgt id='8539'>0.22285E+02</wgt>
<wgt id='8540'>0.22282E+02</wgt>
<wgt id='8541'>0.22292E+02</wgt>
<wgt id='8542'>0.22297E+02</wgt>
<wgt id='8543'>0.22260E+02</wgt>
<wgt id='8544'>0.22301E+02</wgt>
<wgt id='8545'>0.22297E+02</wgt>
<wgt id='8546'>0.22304E+02</wgt>
<wgt id='8547'>0.22260E+02</wgt>
<wgt id='8548'>0.22259E+02</wgt>
<wgt id='8549'>0.22281E+02</wgt>
<wgt id='8550'>0.22281E+02</wgt>
<wgt id='8551'>0.22259E+02</wgt>
<wgt id='8552'>0.22282E+02</wgt>
<wgt id='8553'>0.22267E+02</wgt>
<wgt id='8554'>0.22269E+02</wgt>
<wgt id='8555'>0.22282E+02</wgt>
<wgt id='8556'>0.22277E+02</wgt>
<wgt id='8557'>0.22275E+02</wgt>
<wgt id='8558'>0.22305E+02</wgt>
<wgt id='8559'>0.22268E+02</wgt>
<wgt id='8560'>0.22254E+02</wgt>
<wgt id='8561'>0.22277E+02</wgt>
<wgt id='8562'>0.22262E+02</wgt>
<wgt id='8563'>0.22281E+02</wgt>
<wgt id='8564'>0.22274E+02</wgt>
<wgt id='8565'>0.22280E+02</wgt>
<wgt id='8566'>0.22275E+02</wgt>
<wgt id='8567'>0.22276E+02</wgt>
<wgt id='8568'>0.22289E+02</wgt>
<wgt id='8569'>0.22286E+02</wgt>
<wgt id='8570'>0.22279E+02</wgt>
<wgt id='8571'>0.22268E+02</wgt>
<wgt id='8572'>0.22272E+02</wgt>
<wgt id='8573'>0.22271E+02</wgt>
<wgt id='8574'>0.22284E+02</wgt>
<wgt id='8575'>0.22277E+02</wgt>
<wgt id='8576'>0.22277E+02</wgt>
<wgt id='8577'>0.22279E+02</wgt>
<wgt id='8578'>0.22281E+02</wgt>
<wgt id='8579'>0.22293E+02</wgt>
<wgt id='8580'>0.22280E+02</wgt>
<wgt id='8581'>0.22285E+02</wgt>
<wgt id='8582'>0.22264E+02</wgt>
<wgt id='8583'>0.22289E+02</wgt>
<wgt id='8584'>0.22285E+02</wgt>
<wgt id='8585'>0.22284E+02</wgt>
<wgt id='8586'>0.22290E+02</wgt>
<wgt id='8587'>0.22276E+02</wgt>
<wgt id='8588'>0.22274E+02</wgt>
<wgt id='8589'>0.22280E+02</wgt>
<wgt id='8590'>0.22278E+02</wgt>
<wgt id='8591'>0.22277E+02</wgt>
<wgt id='8592'>0.22279E+02</wgt>
<wgt id='8593'>0.22271E+02</wgt>
<wgt id='8594'>0.22283E+02</wgt>
<wgt id='8595'>0.22282E+02</wgt>
<wgt id='8596'>0.22275E+02</wgt>
<wgt id='8597'>0.22282E+02</wgt>
<wgt id='8598'>0.22285E+02</wgt>
<wgt id='8599'>0.22282E+02</wgt>
<wgt id='8600'>0.22279E+02</wgt>
<wgt id='8601'>0.21828E+02</wgt>
<wgt id='8602'>0.22687E+02</wgt>
<wgt id='9000'>0.21184E+02</wgt>
<wgt id='9001'>0.21207E+02</wgt>
<wgt id='9002'>0.21272E+02</wgt>
<wgt id='9003'>0.21039E+02</wgt>
<wgt id='9004'>0.21156E+02</wgt>
<wgt id='9005'>0.21250E+02</wgt>
<wgt id='9006'>0.21150E+02</wgt>
<wgt id='9007'>0.21209E+02</wgt>
<wgt id='9008'>0.21222E+02</wgt>
<wgt id='9009'>0.21167E+02</wgt>
<wgt id='9010'>0.21126E+02</wgt>
<wgt id='9011'>0.21389E+02</wgt>
<wgt id='9012'>0.21014E+02</wgt>
<wgt id='9013'>0.20925E+02</wgt>
<wgt id='9014'>0.21020E+02</wgt>
<wgt id='9015'>0.21188E+02</wgt>
<wgt id='9016'>0.21347E+02</wgt>
<wgt id='9017'>0.21157E+02</wgt>
<wgt id='9018'>0.21146E+02</wgt>
<wgt id='9019'>0.21149E+02</wgt>
<wgt id='9020'>0.21278E+02</wgt>
<wgt id='9021'>0.21152E+02</wgt>
<wgt id='9022'>0.21216E+02</wgt>
<wgt id='9023'>0.21137E+02</wgt>
<wgt id='9024'>0.21160E+02</wgt>
<wgt id='9025'>0.21213E+02</wgt>
<wgt id='9026'>0.21187E+02</wgt>
<wgt id='9027'>0.21144E+02</wgt>
<wgt id='9028'>0.21202E+02</wgt>
<wgt id='9029'>0.21211E+02</wgt>
<wgt id='9030'>0.21189E+02</wgt>
<wgt id='9031'>0.21171E+02</wgt>
<wgt id='9032'>0.21205E+02</wgt>
<wgt id='9033'>0.21212E+02</wgt>
<wgt id='9034'>0.21176E+02</wgt>
<wgt id='9035'>0.21219E+02</wgt>
<wgt id='9036'>0.21185E+02</wgt>
<wgt id='9037'>0.21204E+02</wgt>
<wgt id='9038'>0.21188E+02</wgt>
<wgt id='9039'>0.21189E+02</wgt>
<wgt id='9040'>0.21162E+02</wgt>
<wgt id='9041'>0.21177E+02</wgt>
<wgt id='9042'>0.21182E+02</wgt>
<wgt id='9043'>0.21165E+02</wgt>
<wgt id='9044'>0.21192E+02</wgt>
<wgt id='9045'>0.21183E+02</wgt>
<wgt id='9046'>0.21155E+02</wgt>
<wgt id='9047'>0.21178E+02</wgt>
<wgt id='9048'>0.21190E+02</wgt>
<wgt id='9049'>0.21173E+02</wgt>
<wgt id='9050'>0.21188E+02</wgt>
<wgt id='9051'>0.21194E+02</wgt>
<wgt id='9052'>0.21191E+02</wgt>
<wgt id='9053'>0.21186E+02</wgt>
<wgt id='9054'>0.21174E+02</wgt>
<wgt id='9055'>0.21178E+02</wgt>
<wgt id='9056'>0.21204E+02</wgt>
<wgt id='9057'>0.21183E+02</wgt>
<wgt id='9058'>0.21166E+02</wgt>
<wgt id='9059'>0.21174E+02</wgt>
<wgt id='9060'>0.21176E+02</wgt>
<wgt id='9061'>0.21187E+02</wgt>
<wgt id='9062'>0.21188E+02</wgt>
<wgt id='9063'>0.21194E+02</wgt>
<wgt id='9064'>0.21179E+02</wgt>
<wgt id='9065'>0.21184E+02</wgt>
<wgt id='9066'>0.21187E+02</wgt>
<wgt id='9067'>0.21192E+02</wgt>
<wgt id='9068'>0.21191E+02</wgt>
<wgt id='9069'>0.21197E+02</wgt>
<wgt id='9070'>0.21182E+02</wgt>
<wgt id='9071'>0.21197E+02</wgt>
<wgt id='9072'>0.21198E+02</wgt>
<wgt id='9073'>0.21179E+02</wgt>
<wgt id='9074'>0.21187E+02</wgt>
<wgt id='9075'>0.21183E+02</wgt>
<wgt id='9076'>0.21181E+02</wgt>
<wgt id='9077'>0.21188E+02</wgt>
<wgt id='9078'>0.21185E+02</wgt>
<wgt id='9079'>0.21181E+02</wgt>
<wgt id='9080'>0.21200E+02</wgt>
<wgt id='9081'>0.21181E+02</wgt>
<wgt id='9082'>0.21189E+02</wgt>
<wgt id='9083'>0.21177E+02</wgt>
<wgt id='9084'>0.21178E+02</wgt>
<wgt id='9085'>0.21178E+02</wgt>
<wgt id='9086'>0.21186E+02</wgt>
<wgt id='9087'>0.21171E+02</wgt>
<wgt id='9088'>0.21180E+02</wgt>
<wgt id='9089'>0.21180E+02</wgt>
<wgt id='9090'>0.21188E+02</wgt>
<wgt id='9091'>0.21182E+02</wgt>
<wgt id='9092'>0.21184E+02</wgt>
<wgt id='9093'>0.21181E+02</wgt>
<wgt id='9094'>0.21183E+02</wgt>
<wgt id='9095'>0.21187E+02</wgt>
<wgt id='9096'>0.21179E+02</wgt>
<wgt id='9097'>0.21186E+02</wgt>
<wgt id='9098'>0.21184E+02</wgt>
<wgt id='9099'>0.21179E+02</wgt>
<wgt id='9100'>0.21183E+02</wgt>
<wgt id='9101'>0.20830E+02</wgt>
<wgt id='9102'>0.21502E+02</wgt>
<wgt id='10000'>0.22276E+02</wgt>
<wgt id='10001'>0.22366E+02</wgt>
<wgt id='10002'>0.22223E+02</wgt>
<wgt id='10003'>0.22272E+02</wgt>
<wgt id='10004'>0.22249E+02</wgt>
<wgt id='10005'>0.22766E+02</wgt>
<wgt id='10006'>0.22249E+02</wgt>
<wgt id='10007'>0.22267E+02</wgt>
<wgt id='10008'>0.22300E+02</wgt>
<wgt id='10009'>0.22230E+02</wgt>
<wgt id='10010'>0.22297E+02</wgt>
<wgt id='10011'>0.22248E+02</wgt>
<wgt id='10012'>0.22245E+02</wgt>
<wgt id='10013'>0.22275E+02</wgt>
<wgt id='10014'>0.22269E+02</wgt>
<wgt id='10015'>0.22297E+02</wgt>
<wgt id='10016'>0.22262E+02</wgt>
<wgt id='10017'>0.22168E+02</wgt>
<wgt id='10018'>0.22298E+02</wgt>
<wgt id='10019'>0.22249E+02</wgt>
<wgt id='10020'>0.22264E+02</wgt>
<wgt id='10021'>0.22271E+02</wgt>
<wgt id='10022'>0.22263E+02</wgt>
<wgt id='10023'>0.22279E+02</wgt>
<wgt id='10024'>0.22263E+02</wgt>
<wgt id='10025'>0.22263E+02</wgt>
<wgt id='10026'>0.22303E+02</wgt>
<wgt id='10027'>0.22299E+02</wgt>
<wgt id='10028'>0.22392E+02</wgt>
<wgt id='10029'>0.22304E+02</wgt>
<wgt id='10030'>0.22270E+02</wgt>
<wgt id='10031'>0.21828E+02</wgt>
<wgt id='10032'>0.22687E+02</wgt>
<wgt id='11000'>0.21181E+02</wgt>
<wgt id='11001'>0.21103E+02</wgt>
<wgt id='11002'>0.21254E+02</wgt>
<wgt id='11003'>0.21158E+02</wgt>
<wgt id='11004'>0.21255E+02</wgt>
<wgt id='11005'>0.20947E+02</wgt>
<wgt id='11006'>0.21185E+02</wgt>
<wgt id='11007'>0.21134E+02</wgt>
<wgt id='11008'>0.21133E+02</wgt>
<wgt id='11009'>0.21098E+02</wgt>
<wgt id='11010'>0.21263E+02</wgt>
<wgt id='11011'>0.21090E+02</wgt>
<wgt id='11012'>0.21199E+02</wgt>
<wgt id='11013'>0.21246E+02</wgt>
<wgt id='11014'>0.21131E+02</wgt>
<wgt id='11015'>0.21161E+02</wgt>
<wgt id='11016'>0.21160E+02</wgt>
<wgt id='11017'>0.21328E+02</wgt>
<wgt id='11018'>0.21175E+02</wgt>
<wgt id='11019'>0.21172E+02</wgt>
<wgt id='11020'>0.21222E+02</wgt>
<wgt id='11021'>0.21231E+02</wgt>
<wgt id='11022'>0.21535E+02</wgt>
<wgt id='11023'>0.21182E+02</wgt>
<wgt id='11024'>0.21183E+02</wgt>
<wgt id='11025'>0.21155E+02</wgt>
<wgt id='11026'>0.21185E+02</wgt>
<wgt id='11027'>0.21175E+02</wgt>
<wgt id='11028'>0.21188E+02</wgt>
<wgt id='11029'>0.21187E+02</wgt>
<wgt id='11030'>0.21181E+02</wgt>
<wgt id='11031'>0.20830E+02</wgt>
<wgt id='11032'>0.21502E+02</wgt>
<wgt id='12000'>0.23373E+02</wgt>
<wgt id='12001'>0.23342E+02</wgt>
<wgt id='12002'>0.23403E+02</wgt>
<wgt id='12003'>0.23428E+02</wgt>
<wgt id='12004'>0.23318E+02</wgt>
<wgt id='12005'>0.23409E+02</wgt>
<wgt id='12006'>0.23337E+02</wgt>
<wgt id='12007'>0.23436E+02</wgt>
<wgt id='12008'>0.23312E+02</wgt>
<wgt id='12009'>0.23402E+02</wgt>
<wgt id='12010'>0.23345E+02</wgt>
<wgt id='12011'>0.23311E+02</wgt>
<wgt id='12012'>0.23438E+02</wgt>
<wgt id='12013'>0.23288E+02</wgt>
<wgt id='12014'>0.23459E+02</wgt>
<wgt id='12015'>0.23380E+02</wgt>
<wgt id='12016'>0.23346E+02</wgt>
<wgt id='12017'>0.23451E+02</wgt>
<wgt id='12018'>0.23289E+02</wgt>
<wgt id='12019'>0.23309E+02</wgt>
<wgt id='12020'>0.23434E+02</wgt>
<wgt id='12021'>0.23452E+02</wgt>
<wgt id='12022'>0.23269E+02</wgt>
<wgt id='12023'>0.23261E+02</wgt>
<wgt id='12024'>0.23376E+02</wgt>
<wgt id='12025'>0.23410E+02</wgt>
<wgt id='12026'>0.23367E+02</wgt>
<wgt id='12027'>0.23404E+02</wgt>
<wgt id='12028'>0.23362E+02</wgt>
<wgt id='12050'>0.23373E+02</wgt>
<wgt id='12051'>0.23365E+02</wgt>
<wgt id='12052'>0.23367E+02</wgt>
<wgt id='12053'>0.23360E+02</wgt>
<wgt id='12054'>0.23370E+02</wgt>
<wgt id='12055'>0.23447E+02</wgt>
<wgt id='12056'>0.23261E+02</wgt>
<wgt id='12057'>0.23294E+02</wgt>
<wgt id='12058'>0.23449E+02</wgt>
<wgt id='12059'>0.23339E+02</wgt>
<wgt id='12060'>0.23414E+02</wgt>
<wgt id='12061'>0.23358E+02</wgt>
<wgt id='12062'>0.23406E+02</wgt>
<wgt id='12063'>0.23163E+02</wgt>
<wgt id='13000'>0.21427E+02</wgt>
<wgt id='13001'>0.21411E+02</wgt>
<wgt id='13002'>0.21440E+02</wgt>
<wgt id='13003'>0.21454E+02</wgt>
<wgt id='13004'>0.21397E+02</wgt>
<wgt id='13005'>0.21474E+02</wgt>
<wgt id='13006'>0.21377E+02</wgt>
<wgt id='13007'>0.21515E+02</wgt>
<wgt id='13008'>0.21338E+02</wgt>
<wgt id='13009'>0.21415E+02</wgt>
<wgt id='13010'>0.21437E+02</wgt>
<wgt id='13011'>0.21481E+02</wgt>
<wgt id='13012'>0.21370E+02</wgt>
<wgt id='13013'>0.21368E+02</wgt>
<wgt id='13014'>0.21483E+02</wgt>
<wgt id='13015'>0.21401E+02</wgt>
<wgt id='13016'>0.21439E+02</wgt>
<wgt id='13017'>0.21414E+02</wgt>
<wgt id='13018'>0.21434E+02</wgt>
<wgt id='13019'>0.21392E+02</wgt>
<wgt id='13020'>0.21458E+02</wgt>
<wgt id='13021'>0.21288E+02</wgt>
<wgt id='13022'>0.21535E+02</wgt>
<wgt id='13023'>0.21412E+02</wgt>
<wgt id='13024'>0.21436E+02</wgt>
<wgt id='13025'>0.21337E+02</wgt>
<wgt id='13026'>0.21464E+02</wgt>
<wgt id='13027'>0.21416E+02</wgt>
<wgt id='13028'>0.21458E+02</wgt>
<wgt id='13050'>0.21427E+02</wgt>
<wgt id='13051'>0.21436E+02</wgt>
<wgt id='13052'>0.21364E+02</wgt>
<wgt id='13053'>0.21428E+02</wgt>
<wgt id='13054'>0.21415E+02</wgt>
<wgt id='13055'>0.21349E+02</wgt>
<wgt id='13056'>0.21428E+02</wgt>
<wgt id='13057'>0.21360E+02</wgt>
<wgt id='13058'>0.21532E+02</wgt>
<wgt id='13059'>0.21373E+02</wgt>
<wgt id='13060'>0.21394E+02</wgt>
<wgt id='13061'>0.21367E+02</wgt>
<wgt id='13062'>0.21586E+02</wgt>
<wgt id='13063'>0.21335E+02</wgt>
<wgt id='14000'>0.21998E+02</wgt>
<wgt id='14001'>0.21995E+02</wgt>
<wgt id='14002'>0.21991E+02</wgt>
<wgt id='14003'>0.21988E+02</wgt>
<wgt id='14004'>0.21985E+02</wgt>
<wgt id='14005'>0.21981E+02</wgt>
<wgt id='14006'>0.21978E+02</wgt>
<wgt id='14007'>0.21974E+02</wgt>
<wgt id='14008'>0.21971E+02</wgt>
<wgt id='14009'>0.21967E+02</wgt>
<wgt id='14010'>0.21964E+02</wgt>
<wgt id='14011'>0.21960E+02</wgt>
<wgt id='14012'>0.21957E+02</wgt>
<wgt id='14013'>0.21954E+02</wgt>
<wgt id='14014'>0.21950E+02</wgt>
<wgt id='14015'>0.21947E+02</wgt>
<wgt id='14016'>0.21943E+02</wgt>
<wgt id='14017'>0.21940E+02</wgt>
<wgt id='14018'>0.21936E+02</wgt>
<wgt id='14019'>0.21933E+02</wgt>
<wgt id='14020'>0.21929E+02</wgt>
<wgt id='14021'>0.21926E+02</wgt>
<wgt id='14022'>0.21923E+02</wgt>
<wgt id='14023'>0.21919E+02</wgt>
<wgt id='14024'>0.21916E+02</wgt>
<wgt id='14025'>0.21912E+02</wgt>
<wgt id='14026'>0.21909E+02</wgt>
<wgt id='14027'>0.21905E+02</wgt>
<wgt id='14028'>0.21902E+02</wgt>
<wgt id='14029'>0.21898E+02</wgt>
<wgt id='14030'>0.21895E+02</wgt>
<wgt id='15000'>0.20912E+02</wgt>
<wgt id='15001'>0.20928E+02</wgt>
<wgt id='15002'>0.20997E+02</wgt>
<wgt id='15003'>0.20771E+02</wgt>
<wgt id='15004'>0.20884E+02</wgt>
<wgt id='15005'>0.20977E+02</wgt>
<wgt id='15006'>0.20884E+02</wgt>
<wgt id='15007'>0.20942E+02</wgt>
<wgt id='15008'>0.20950E+02</wgt>
<wgt id='15009'>0.20896E+02</wgt>
<wgt id='15010'>0.20854E+02</wgt>
<wgt id='15011'>0.21122E+02</wgt>
<wgt id='15012'>0.20748E+02</wgt>
<wgt id='15013'>0.20660E+02</wgt>
<wgt id='15014'>0.20749E+02</wgt>
<wgt id='15015'>0.20906E+02</wgt>
<wgt id='15016'>0.21081E+02</wgt>
<wgt id='15017'>0.20883E+02</wgt>
<wgt id='15018'>0.20874E+02</wgt>
<wgt id='15019'>0.20883E+02</wgt>
<wgt id='15020'>0.21011E+02</wgt>
<wgt id='15021'>0.20877E+02</wgt>
<wgt id='15022'>0.20943E+02</wgt>
<wgt id='15023'>0.20867E+02</wgt>
<wgt id='15024'>0.20884E+02</wgt>
<wgt id='15025'>0.20936E+02</wgt>
<wgt id='15026'>0.20910E+02</wgt>
<wgt id='15027'>0.20879E+02</wgt>
<wgt id='15028'>0.20933E+02</wgt>
<wgt id='15029'>0.20936E+02</wgt>
<wgt id='15030'>0.20914E+02</wgt>
<wgt id='15031'>0.20905E+02</wgt>
<wgt id='15032'>0.20931E+02</wgt>
<wgt id='15033'>0.20939E+02</wgt>
<wgt id='15034'>0.20904E+02</wgt>
<wgt id='15035'>0.20946E+02</wgt>
<wgt id='15036'>0.20914E+02</wgt>
<wgt id='15037'>0.20932E+02</wgt>
<wgt id='15038'>0.20916E+02</wgt>
<wgt id='15039'>0.20915E+02</wgt>
<wgt id='15040'>0.20890E+02</wgt>
<wgt id='15041'>0.20904E+02</wgt>
<wgt id='15042'>0.20910E+02</wgt>
<wgt id='15043'>0.20897E+02</wgt>
<wgt id='15044'>0.20919E+02</wgt>
<wgt id='15045'>0.20911E+02</wgt>
<wgt id='15046'>0.20885E+02</wgt>
<wgt id='15047'>0.20905E+02</wgt>
<wgt id='15048'>0.20920E+02</wgt>
<wgt id='15049'>0.20900E+02</wgt>
<wgt id='15050'>0.20917E+02</wgt>
<wgt id='15051'>0.20921E+02</wgt>
<wgt id='15052'>0.20919E+02</wgt>
<wgt id='15053'>0.20915E+02</wgt>
<wgt id='15054'>0.20903E+02</wgt>
<wgt id='15055'>0.20907E+02</wgt>
<wgt id='15056'>0.20931E+02</wgt>
<wgt id='15057'>0.20911E+02</wgt>
<wgt id='15058'>0.20897E+02</wgt>
<wgt id='15059'>0.20903E+02</wgt>
<wgt id='15060'>0.20905E+02</wgt>
<wgt id='15061'>0.20915E+02</wgt>
<wgt id='15062'>0.20915E+02</wgt>
<wgt id='15063'>0.20922E+02</wgt>
<wgt id='15064'>0.20908E+02</wgt>
<wgt id='15065'>0.20912E+02</wgt>
<wgt id='15066'>0.20915E+02</wgt>
<wgt id='15067'>0.20919E+02</wgt>
<wgt id='15068'>0.20919E+02</wgt>
<wgt id='15069'>0.20924E+02</wgt>
<wgt id='15070'>0.20910E+02</wgt>
<wgt id='15071'>0.20925E+02</wgt>
<wgt id='15072'>0.20925E+02</wgt>
<wgt id='15073'>0.20907E+02</wgt>
<wgt id='15074'>0.20916E+02</wgt>
<wgt id='15075'>0.20911E+02</wgt>
<wgt id='15076'>0.20911E+02</wgt>
<wgt id='15077'>0.20916E+02</wgt>
<wgt id='15078'>0.20914E+02</wgt>
<wgt id='15079'>0.20909E+02</wgt>
<wgt id='15080'>0.20927E+02</wgt>
<wgt id='15081'>0.20910E+02</wgt>
<wgt id='15082'>0.20918E+02</wgt>
<wgt id='15083'>0.20905E+02</wgt>
<wgt id='15084'>0.20906E+02</wgt>
<wgt id='15085'>0.20907E+02</wgt>
<wgt id='15086'>0.20916E+02</wgt>
<wgt id='15087'>0.20899E+02</wgt>
<wgt id='15088'>0.20908E+02</wgt>
<wgt id='15089'>0.20907E+02</wgt>
<wgt id='15090'>0.20916E+02</wgt>
<wgt id='15091'>0.20910E+02</wgt>
<wgt id='15092'>0.20912E+02</wgt>
<wgt id='15093'>0.20909E+02</wgt>
<wgt id='15094'>0.20911E+02</wgt>
<wgt id='15095'>0.20915E+02</wgt>
<wgt id='15096'>0.20908E+02</wgt>
<wgt id='15097'>0.20914E+02</wgt>
<wgt id='15098'>0.20912E+02</wgt>
<wgt id='15099'>0.20908E+02</wgt>
<wgt id='15100'>0.20912E+02</wgt>
<wgt id='15101'>0.20912E+02</wgt>
<wgt id='15102'>0.20911E+02</wgt>
<wgt id='15103'>0.20913E+02</wgt>
<wgt id='15104'>0.20913E+02</wgt>
<wgt id='15105'>0.20913E+02</wgt>
<wgt id='15106'>0.20913E+02</wgt>
<wgt id='15107'>0.20911E+02</wgt>
<wgt id='1500'>0.22265E+02</wgt>
<wgt id='1501'>0.20546E+02</wgt>
<wgt id='1502'>0.22213E+02</wgt>
<wgt id='1503'>0.22274E+02</wgt>
<wgt id='1504'>0.21982E+02</wgt>
<wgt id='1505'>0.19868E+02</wgt>
<wgt id='1506'>0.22566E+02</wgt>
<wgt id='1507'>0.22472E+02</wgt>
<wgt id='1508'>0.22460E+02</wgt>
<wgt id='1509'>0.22398E+02</wgt>
<wgt id='1510'>0.21592E+02</wgt>
<wgt id='1511'>0.21758E+02</wgt>
<wgt id='1512'>0.22651E+02</wgt>
<wgt id='1513'>0.22684E+02</wgt>
<wgt id='1514'>0.21839E+02</wgt>
<wgt id='1515'>0.22649E+02</wgt>
<wgt id='1516'>0.22504E+02</wgt>
<wgt id='1517'>0.22059E+02</wgt>
<wgt id='1518'>0.22107E+02</wgt>
<wgt id='1519'>0.22577E+02</wgt>
<wgt id='1520'>0.22678E+02</wgt>
<wgt id='1521'>0.22420E+02</wgt>
<wgt id='1522'>0.22074E+02</wgt>
<wgt id='1523'>0.23913E+02</wgt>
<wgt id='1524'>0.22177E+02</wgt>
<wgt id='1525'>0.22428E+02</wgt>
<wgt id='1526'>0.22037E+02</wgt>
<wgt id='1527'>0.22046E+02</wgt>
<wgt id='1528'>0.22058E+02</wgt>
<wgt id='1529'>0.22192E+02</wgt>
<wgt id='1530'>0.22762E+02</wgt>
<wgt id='1531'>0.22202E+02</wgt>
<wgt id='1532'>0.21730E+02</wgt>
<wgt id='1533'>0.22275E+02</wgt>
<wgt id='1534'>0.22374E+02</wgt>
<wgt id='1535'>0.22856E+02</wgt>
<wgt id='1536'>0.22604E+02</wgt>
<wgt id='1537'>0.22654E+02</wgt>
<wgt id='1538'>0.22548E+02</wgt>
<wgt id='1539'>0.21646E+02</wgt>
<wgt id='1540'>0.22502E+02</wgt>
<wgt id='1541'>0.22306E+02</wgt>
<wgt id='1542'>0.22326E+02</wgt>
<wgt id='1543'>0.22422E+02</wgt>
<wgt id='1544'>0.22138E+02</wgt>
<wgt id='1545'>0.22259E+02</wgt>
<wgt id='1546'>0.22578E+02</wgt>
<wgt id='1547'>0.21960E+02</wgt>
<wgt id='1548'>0.22005E+02</wgt>
<wgt id='1549'>0.22114E+02</wgt>
<wgt id='1550'>0.22215E+02</wgt>
<wgt id='1551'>0.22218E+02</wgt>
<wgt id='1552'>0.22044E+02</wgt>
<wgt id='1553'>0.22563E+02</wgt>
<wgt id='1554'>0.22388E+02</wgt>
<wgt id='1555'>0.22116E+02</wgt>
<wgt id='1556'>0.21818E+02</wgt>
<wgt id='1557'>0.22797E+02</wgt>
<wgt id='1558'>0.22007E+02</wgt>
<wgt id='1559'>0.22580E+02</wgt>
<wgt id='1560'>0.22186E+02</wgt>
<wgt id='1561'>0.22306E+02</wgt>
<wgt id='1562'>0.22299E+02</wgt>
<wgt id='1563'>0.22519E+02</wgt>
<wgt id='1564'>0.21845E+02</wgt>
<wgt id='1565'>0.22459E+02</wgt>
<wgt id='1566'>0.22403E+02</wgt>
<wgt id='1567'>0.23617E+02</wgt>
<wgt id='1568'>0.21948E+02</wgt>
<wgt id='1569'>0.21718E+02</wgt>
<wgt id='1570'>0.22155E+02</wgt>
<wgt id='1571'>0.22482E+02</wgt>
<wgt id='1572'>0.22355E+02</wgt>
<wgt id='1573'>0.20955E+02</wgt>
<wgt id='1574'>0.22506E+02</wgt>
<wgt id='1575'>0.22074E+02</wgt>
<wgt id='1576'>0.21841E+02</wgt>
<wgt id='1577'>0.22487E+02</wgt>
<wgt id='1578'>0.22995E+02</wgt>
<wgt id='1579'>0.22092E+02</wgt>
<wgt id='1580'>0.22331E+02</wgt>
<wgt id='1581'>0.22422E+02</wgt>
<wgt id='1582'>0.22011E+02</wgt>
<wgt id='1583'>0.22573E+02</wgt>
<wgt id='1584'>0.22233E+02</wgt>
<wgt id='1585'>0.21753E+02</wgt>
<wgt id='1586'>0.22153E+02</wgt>
<wgt id='1587'>0.22250E+02</wgt>
<wgt id='1588'>0.22239E+02</wgt>
<wgt id='1589'>0.22883E+02</wgt>
<wgt id='1590'>0.22138E+02</wgt>
<wgt id='1591'>0.21937E+02</wgt>
<wgt id='1592'>0.22496E+02</wgt>
<wgt id='1593'>0.22158E+02</wgt>
<wgt id='1594'>0.22740E+02</wgt>
<wgt id='1595'>0.21880E+02</wgt>
<wgt id='1596'>0.22609E+02</wgt>
<wgt id='1597'>0.22251E+02</wgt>
<wgt id='1598'>0.22951E+02</wgt>
<wgt id='1599'>0.22736E+02</wgt>
<wgt id='1600'>0.22445E+02</wgt>
<wgt id='1601'>0.21910E+02</wgt>
<wgt id='1602'>0.22477E+02</wgt>
<wgt id='1700'>0.21376E+02</wgt>
<wgt id='1800'>0.25460E+02</wgt>
<wgt id='1850'>0.30867E+02</wgt>
<wgt id='1900'>0.25921E+02</wgt>
<wgt id='1950'>0.30262E+02</wgt>
</rwgt>
</event>
<event>
      4   9999  2.16956E+01  4.32083E+01 -1.00000E+00  1.40673E-01
      21    -1     0     0   512   501  0.000000000E+00  0.000000000E+00  3.109249284E+02  3.109249284E+02  0.000000000E+00  0.00000E+00  9.000E+00
      21    -1     0     0   501   502  0.000000000E+00  0.000000000E+00 -2.823343871E+01  2.823343871E+01  0.000000000E+00  0.00000E+00  9.000E+00
      25     1     1     2     0     0 -3.613347146E+01 -2.369248102E+01  1.518811275E+02  2.013965717E+02  1.250029631E+02  0.00000E+00  9.000E+00
      21     1     1     2   512   502  3.613347146E+01  2.369248102E+01  1.308103621E+02  1.377617954E+02  0.000000000E+00  0.00000E+00  9.000E+00
#rwgt            1           1   20.090803707673448                1        1790           0
<rwgt>
<wgt id='1001'>0.21696E+02</wgt>
<wgt id='1002'>0.22156E+02</wgt>
<wgt id='1003'>0.21004E+02</wgt>
<wgt id='1004'>0.18991E+02</wgt>
<wgt id='1005'>0.19450E+02</wgt>
<wgt id='1006'>0.18311E+02</wgt>
<wgt id='1007'>0.24901E+02</wgt>
<wgt id='1008'>0.25329E+02</wgt>
<wgt id='1009'>0.24244E+02</wgt>
<wgt id='2000'>0.21696E+02</wgt>
<wgt id='2001'>0.21664E+02</wgt>
<wgt id='2002'>0.21774E+02</wgt>
<wgt id='2003'>0.21760E+02</wgt>
<wgt id='2004'>0.21712E+02</wgt>
<wgt id='2005'>0.21657E+02</wgt>
<wgt id='2006'>0.21650E+02</wgt>
<wgt id='2007'>0.21626E+02</wgt>
<wgt id='2008'>0.21677E+02</wgt>
<wgt id='2009'>0.21705E+02</wgt>
<wgt id='2010'>0.21679E+02</wgt>
<wgt id='2011'>0.21779E+02</wgt>
<wgt id='2012'>0.21790E+02</wgt>
<wgt id='2013'>0.21832E+02</wgt>
<wgt id='2014'>0.21766E+02</wgt>
<wgt id='2015'>0.21743E+02</wgt>
<wgt id='2016'>0.21675E+02</wgt>
<wgt id='2017'>0.21694E+02</wgt>
<wgt id='2018'>0.21761E+02</wgt>
<wgt id='2019'>0.21686E+02</wgt>
<wgt id='2020'>0.21773E+02</wgt>
<wgt id='2021'>0.21657E+02</wgt>
<wgt id='2022'>0.21753E+02</wgt>
<wgt id='2023'>0.21732E+02</wgt>
<wgt id='2024'>0.21704E+02</wgt>
<wgt id='2025'>0.21756E+02</wgt>
<wgt id='2026'>0.21729E+02</wgt>
<wgt id='2027'>0.21676E+02</wgt>
<wgt id='2028'>0.21673E+02</wgt>
<wgt id='2029'>0.21709E+02</wgt>
<wgt id='2030'>0.21707E+02</wgt>
<wgt id='2031'>0.21702E+02</wgt>
<wgt id='2032'>0.21701E+02</wgt>
<wgt id='2033'>0.21702E+02</wgt>
<wgt id='2034'>0.21692E+02</wgt>
<wgt id='2035'>0.21692E+02</wgt>
<wgt id='2036'>0.21690E+02</wgt>
<wgt id='2037'>0.21699E+02</wgt>
<wgt id='2038'>0.21696E+02</wgt>
<wgt id='2039'>0.21695E+02</wgt>
<wgt id='2040'>0.21687E+02</wgt>
<wgt id='2041'>0.21683E+02</wgt>
<wgt id='2042'>0.21684E+02</wgt>
<wgt id='2043'>0.21698E+02</wgt>
<wgt id='2044'>0.21704E+02</wgt>
<wgt id='2045'>0.21694E+02</wgt>
<wgt id='2046'>0.21709E+02</wgt>
<wgt id='2047'>0.21700E+02</wgt>
<wgt id='2048'>0.21694E+02</wgt>
<wgt id='2049'>0.21696E+02</wgt>
<wgt id='2050'>0.21704E+02</wgt>
<wgt id='2051'>0.21698E+02</wgt>
<wgt id='2052'>0.21689E+02</wgt>
<wgt id='2053'>0.21696E+02</wgt>
<wgt id='2054'>0.21699E+02</wgt>
<wgt id='2055'>0.21696E+02</wgt>
<wgt id='2056'>0.21697E+02</wgt>
<wgt id='2057'>0.21694E+02</wgt>
<wgt id='2058'>0.21697E+02</wgt>
<wgt id='2059'>0.21692E+02</wgt>
<wgt id='2060'>0.21696E+02</wgt>
<wgt id='2061'>0.21694E+02</wgt>
<wgt id='2062'>0.21699E+02</wgt>
<wgt id='2063'>0.21693E+02</wgt>
<wgt id='2064'>0.21694E+02</wgt>
<wgt id='2065'>0.21701E+02</wgt>
<wgt id='2066'>0.21695E+02</wgt>
<wgt id='2067'>0.21696E+02</wgt>
<wgt id='2068'>0.21699E+02</wgt>
<wgt id='2069'>0.21694E+02</wgt>
<wgt id='2070'>0.21694E+02</wgt>
<wgt id='2071'>0.21689E+02</wgt>
<wgt id='2072'>0.21697E+02</wgt>
<wgt id='2073'>0.21697E+02</wgt>
<wgt id='2074'>0.21691E+02</wgt>
<wgt id='2075'>0.21695E+02</wgt>
<wgt id='2076'>0.21694E+02</wgt>
<wgt id='2077'>0.21694E+02</wgt>
<wgt id='2078'>0.21696E+02</wgt>
<wgt id='2079'>0.21697E+02</wgt>
<wgt id='2080'>0.21695E+02</wgt>
<wgt id='2081'>0.21696E+02</wgt>
<wgt id='2082'>0.21697E+02</wgt>
<wgt id='2083'>0.21696E+02</wgt>
<wgt id='2084'>0.21696E+02</wgt>
<wgt id='2085'>0.21695E+02</wgt>
<wgt id='2086'>0.21695E+02</wgt>
<wgt id='2087'>0.21695E+02</wgt>
<wgt id='2088'>0.21696E+02</wgt>
<wgt id='2089'>0.21695E+02</wgt>
<wgt id='2090'>0.21696E+02</wgt>
<wgt id='2091'>0.21695E+02</wgt>
<wgt id='2092'>0.21696E+02</wgt>
<wgt id='2093'>0.21695E+02</wgt>
<wgt id='2094'>0.21696E+02</wgt>
<wgt id='2095'>0.21697E+02</wgt>
<wgt id='2096'>0.21695E+02</wgt>
<wgt id='2097'>0.21696E+02</wgt>
<wgt id='2098'>0.21694E+02</wgt>
<wgt id='2099'>0.21696E+02</wgt>
<wgt id='2100'>0.21696E+02</wgt>
<wgt id='2101'>0.21163E+02</wgt>
<wgt id='2102'>0.22161E+02</wgt>
<wgt id='2104'>0.19273E+02</wgt>
<wgt id='2105'>0.19707E+02</wgt>
<wgt id='2106'>0.20207E+02</wgt>
<wgt id='2107'>0.20730E+02</wgt>
<wgt id='2108'>0.21480E+02</wgt>
<wgt id='2109'>0.21982E+02</wgt>
<wgt id='2110'>0.22606E+02</wgt>
<wgt id='2111'>0.23091E+02</wgt>
<wgt id='3000'>0.22613E+02</wgt>
<wgt id='3001'>0.22685E+02</wgt>
<wgt id='3002'>0.22533E+02</wgt>
<wgt id='3003'>0.22684E+02</wgt>
<wgt id='3004'>0.22654E+02</wgt>
<wgt id='3005'>0.22699E+02</wgt>
<wgt id='3006'>0.22638E+02</wgt>
<wgt id='3007'>0.22647E+02</wgt>
<wgt id='3008'>0.22561E+02</wgt>
<wgt id='3009'>0.22577E+02</wgt>
<wgt id='3010'>0.22544E+02</wgt>
<wgt id='3011'>0.22656E+02</wgt>
<wgt id='3012'>0.22748E+02</wgt>
<wgt id='3013'>0.22477E+02</wgt>
<wgt id='3014'>0.22683E+02</wgt>
<wgt id='3015'>0.22660E+02</wgt>
<wgt id='3016'>0.22628E+02</wgt>
<wgt id='3017'>0.22690E+02</wgt>
<wgt id='3018'>0.22654E+02</wgt>
<wgt id='3019'>0.22536E+02</wgt>
<wgt id='3020'>0.22565E+02</wgt>
<wgt id='3021'>0.22540E+02</wgt>
<wgt id='3022'>0.22608E+02</wgt>
<wgt id='3023'>0.22570E+02</wgt>
<wgt id='3024'>0.22572E+02</wgt>
<wgt id='3025'>0.22611E+02</wgt>
<wgt id='3026'>0.22645E+02</wgt>
<wgt id='3027'>0.22619E+02</wgt>
<wgt id='3028'>0.22564E+02</wgt>
<wgt id='3029'>0.22614E+02</wgt>
<wgt id='3030'>0.22628E+02</wgt>
<wgt id='3031'>0.22619E+02</wgt>
<wgt id='3032'>0.22621E+02</wgt>
<wgt id='3033'>0.22617E+02</wgt>
<wgt id='3034'>0.22624E+02</wgt>
<wgt id='3035'>0.22620E+02</wgt>
<wgt id='3036'>0.22616E+02</wgt>
<wgt id='3037'>0.22612E+02</wgt>
<wgt id='3038'>0.22613E+02</wgt>
<wgt id='3039'>0.22628E+02</wgt>
<wgt id='3040'>0.22608E+02</wgt>
<wgt id='3041'>0.22607E+02</wgt>
<wgt id='3042'>0.22602E+02</wgt>
<wgt id='3043'>0.22601E+02</wgt>
<wgt id='3044'>0.22625E+02</wgt>
<wgt id='3045'>0.22622E+02</wgt>
<wgt id='3046'>0.22615E+02</wgt>
<wgt id='3047'>0.22610E+02</wgt>
<wgt id='3048'>0.22616E+02</wgt>
<wgt id='3049'>0.22607E+02</wgt>
<wgt id='3050'>0.22609E+02</wgt>
<wgt id='3051'>0.22626E+02</wgt>
<wgt id='3052'>0.22611E+02</wgt>
<wgt id='3053'>0.22611E+02</wgt>
<wgt id='3054'>0.22611E+02</wgt>
<wgt id='3055'>0.22617E+02</wgt>
<wgt id='3056'>0.22618E+02</wgt>
<wgt id='3057'>0.22614E+02</wgt>
<wgt id='3058'>0.22607E+02</wgt>
<wgt id='3059'>0.22616E+02</wgt>
<wgt id='3060'>0.22616E+02</wgt>
<wgt id='3061'>0.22623E+02</wgt>
<wgt id='3062'>0.22618E+02</wgt>
<wgt id='3063'>0.22615E+02</wgt>
<wgt id='3064'>0.22612E+02</wgt>
<wgt id='3065'>0.22612E+02</wgt>
<wgt id='3066'>0.22616E+02</wgt>
<wgt id='3067'>0.22606E+02</wgt>
<wgt id='3068'>0.22614E+02</wgt>
<wgt id='3069'>0.22609E+02</wgt>
<wgt id='3070'>0.22609E+02</wgt>
<wgt id='3071'>0.22611E+02</wgt>
<wgt id='3072'>0.22617E+02</wgt>
<wgt id='3073'>0.22610E+02</wgt>
<wgt id='3074'>0.22615E+02</wgt>
<wgt id='3075'>0.22614E+02</wgt>
<wgt id='3076'>0.22614E+02</wgt>
<wgt id='3077'>0.22614E+02</wgt>
<wgt id='3078'>0.22615E+02</wgt>
<wgt id='3079'>0.22614E+02</wgt>
<wgt id='3080'>0.22611E+02</wgt>
<wgt id='3081'>0.22613E+02</wgt>
<wgt id='3082'>0.22612E+02</wgt>
<wgt id='3083'>0.22612E+02</wgt>
<wgt id='3084'>0.22611E+02</wgt>
<wgt id='3085'>0.22614E+02</wgt>
<wgt id='3086'>0.22612E+02</wgt>
<wgt id='3087'>0.22611E+02</wgt>
<wgt id='3088'>0.22613E+02</wgt>
<wgt id='3089'>0.22613E+02</wgt>
<wgt id='3090'>0.22614E+02</wgt>
<wgt id='3091'>0.22614E+02</wgt>
<wgt id='3092'>0.22614E+02</wgt>
<wgt id='3093'>0.22613E+02</wgt>
<wgt id='3094'>0.22616E+02</wgt>
<wgt id='3095'>0.22614E+02</wgt>
<wgt id='3096'>0.22613E+02</wgt>
<wgt id='3097'>0.22611E+02</wgt>
<wgt id='3098'>0.22613E+02</wgt>
<wgt id='3099'>0.22614E+02</wgt>
<wgt id='3100'>0.22614E+02</wgt>
<wgt id='3101'>0.22077E+02</wgt>
<wgt id='3102'>0.23224E+02</wgt>
<wgt id='5000'>0.21035E+02</wgt>
<wgt id='5001'>0.20963E+02</wgt>
<wgt id='5002'>0.20999E+02</wgt>
<wgt id='5003'>0.20917E+02</wgt>
<wgt id='5004'>0.21059E+02</wgt>
<wgt id='5005'>0.20604E+02</wgt>
<wgt id='5006'>0.21256E+02</wgt>
<wgt id='5007'>0.21100E+02</wgt>
<wgt id='5008'>0.20816E+02</wgt>
<wgt id='5009'>0.21257E+02</wgt>
<wgt id='5010'>0.20909E+02</wgt>
<wgt id='5011'>0.21002E+02</wgt>
<wgt id='5012'>0.21021E+02</wgt>
<wgt id='5013'>0.20634E+02</wgt>
<wgt id='5014'>0.21088E+02</wgt>
<wgt id='5015'>0.21184E+02</wgt>
<wgt id='5016'>0.20578E+02</wgt>
<wgt id='5017'>0.21045E+02</wgt>
<wgt id='5018'>0.21024E+02</wgt>
<wgt id='5019'>0.20995E+02</wgt>
<wgt id='5020'>0.21066E+02</wgt>
<wgt id='5021'>0.21102E+02</wgt>
<wgt id='5022'>0.20992E+02</wgt>
<wgt id='5023'>0.20978E+02</wgt>
<wgt id='5024'>0.21093E+02</wgt>
<wgt id='5025'>0.21018E+02</wgt>
<wgt id='5026'>0.21049E+02</wgt>
<wgt id='5027'>0.21246E+02</wgt>
<wgt id='5028'>0.20680E+02</wgt>
<wgt id='5029'>0.20647E+02</wgt>
<wgt id='5030'>0.21269E+02</wgt>
<wgt id='5031'>0.20805E+02</wgt>
<wgt id='5032'>0.21368E+02</wgt>
<wgt id='5033'>0.20897E+02</wgt>
<wgt id='5034'>0.21152E+02</wgt>
<wgt id='5035'>0.20763E+02</wgt>
<wgt id='5036'>0.21255E+02</wgt>
<wgt id='5037'>0.20960E+02</wgt>
<wgt id='5038'>0.21108E+02</wgt>
<wgt id='5039'>0.21394E+02</wgt>
<wgt id='5040'>0.20851E+02</wgt>
<wgt id='5041'>0.20835E+02</wgt>
<wgt id='5042'>0.21062E+02</wgt>
<wgt id='5043'>0.21222E+02</wgt>
<wgt id='5044'>0.20518E+02</wgt>
<wgt id='5045'>0.21653E+02</wgt>
<wgt id='5046'>0.20822E+02</wgt>
<wgt id='5047'>0.21199E+02</wgt>
<wgt id='5048'>0.21105E+02</wgt>
<wgt id='5049'>0.21054E+02</wgt>
<wgt id='5050'>0.21069E+02</wgt>
<wgt id='5051'>0.21087E+02</wgt>
<wgt id='5052'>0.21024E+02</wgt>
<wgt id='5053'>0.20867E+02</wgt>
<wgt id='5054'>0.21411E+02</wgt>
<wgt id='5055'>0.20904E+02</wgt>
<wgt id='5056'>0.21182E+02</wgt>
<wgt id='5060'>0.20537E+02</wgt>
<wgt id='5070'>0.21474E+02</wgt>
<wgt id='4000'>0.22078E+02</wgt>
<wgt id='4001'>0.22100E+02</wgt>
<wgt id='4002'>0.22138E+02</wgt>
<wgt id='4003'>0.22490E+02</wgt>
<wgt id='4004'>0.21866E+02</wgt>
<wgt id='4005'>0.22144E+02</wgt>
<wgt id='4006'>0.22026E+02</wgt>
<wgt id='4007'>0.22320E+02</wgt>
<wgt id='4008'>0.21962E+02</wgt>
<wgt id='4009'>0.21657E+02</wgt>
<wgt id='4010'>0.22360E+02</wgt>
<wgt id='4011'>0.22422E+02</wgt>
<wgt id='4012'>0.21877E+02</wgt>
<wgt id='4013'>0.21312E+02</wgt>
<wgt id='4014'>0.22513E+02</wgt>
<wgt id='4015'>0.22295E+02</wgt>
<wgt id='4016'>0.21935E+02</wgt>
<wgt id='4017'>0.21849E+02</wgt>
<wgt id='4018'>0.22349E+02</wgt>
<wgt id='4019'>0.22359E+02</wgt>
<wgt id='4020'>0.21764E+02</wgt>
<wgt id='4021'>0.22132E+02</wgt>
<wgt id='4022'>0.21958E+02</wgt>
<wgt id='4023'>0.21971E+02</wgt>
<wgt id='4024'>0.22172E+02</wgt>
<wgt id='4025'>0.21836E+02</wgt>
<wgt id='4026'>0.22296E+02</wgt>
<wgt id='4027'>0.22007E+02</wgt>
<wgt id='4028'>0.22172E+02</wgt>
<wgt id='4029'>0.21919E+02</wgt>
<wgt id='4030'>0.22132E+02</wgt>
<wgt id='4031'>0.22116E+02</wgt>
<wgt id='4032'>0.22028E+02</wgt>
<wgt id='4033'>0.22047E+02</wgt>
<wgt id='4034'>0.22139E+02</wgt>
<wgt id='4035'>0.22363E+02</wgt>
<wgt id='4036'>0.21803E+02</wgt>
<wgt id='4037'>0.22245E+02</wgt>
<wgt id='4038'>0.21795E+02</wgt>
<wgt id='4039'>0.22065E+02</wgt>
<wgt id='4040'>0.22050E+02</wgt>
<wgt id='4041'>0.22245E+02</wgt>
<wgt id='4042'>0.21925E+02</wgt>
<wgt id='4043'>0.22265E+02</wgt>
<wgt id='4044'>0.21897E+02</wgt>
<wgt id='4045'>0.21788E+02</wgt>
<wgt id='4046'>0.22008E+02</wgt>
<wgt id='4047'>0.21830E+02</wgt>
<wgt id='4048'>0.22206E+02</wgt>
<wgt id='4049'>0.22083E+02</wgt>
<wgt id='4050'>0.21712E+02</wgt>
<wgt id='4051'>0.22032E+02</wgt>
<wgt id='4052'>0.22029E+02</wgt>
<wgt id='4053'>0.21503E+02</wgt>
<wgt id='4054'>0.22213E+02</wgt>
<wgt id='4055'>0.21909E+02</wgt>
<wgt id='4056'>0.22259E+02</wgt>
<wgt id='4060'>0.21487E+02</wgt>
<wgt id='4070'>0.22626E+02</wgt>
<wgt id='4080'>0.21683E+02</wgt>
<wgt id='6000'>0.22509E+02</wgt>
<wgt id='6001'>0.22520E+02</wgt>
<wgt id='6002'>0.22496E+02</wgt>
<wgt id='6003'>0.22519E+02</wgt>
<wgt id='6004'>0.22502E+02</wgt>
<wgt id='6005'>0.22567E+02</wgt>
<wgt id='6006'>0.22453E+02</wgt>
<wgt id='6007'>0.22415E+02</wgt>
<wgt id='6008'>0.22614E+02</wgt>
<wgt id='6009'>0.22579E+02</wgt>
<wgt id='6010'>0.22440E+02</wgt>
<wgt id='6011'>0.22555E+02</wgt>
<wgt id='6012'>0.22408E+02</wgt>
<wgt id='6013'>0.22485E+02</wgt>
<wgt id='6014'>0.22551E+02</wgt>
<wgt id='6015'>0.22440E+02</wgt>
<wgt id='6016'>0.22547E+02</wgt>
<wgt id='6017'>0.22384E+02</wgt>
<wgt id='6018'>0.22656E+02</wgt>
<wgt id='6019'>0.22539E+02</wgt>
<wgt id='6020'>0.22481E+02</wgt>
<wgt id='6021'>0.22460E+02</wgt>
<wgt id='6022'>0.22574E+02</wgt>
<wgt id='6023'>0.22354E+02</wgt>
<wgt id='6024'>0.22616E+02</wgt>
<wgt id='6025'>0.22295E+02</wgt>
<wgt id='6026'>0.22682E+02</wgt>
<wgt id='6027'>0.22567E+02</wgt>
<wgt id='6028'>0.22508E+02</wgt>
<wgt id='6029'>0.22626E+02</wgt>
<wgt id='6030'>0.22373E+02</wgt>
<wgt id='6031'>0.22518E+02</wgt>
<wgt id='6032'>0.22491E+02</wgt>
<wgt id='6033'>0.22554E+02</wgt>
<wgt id='6034'>0.22461E+02</wgt>
<wgt id='6035'>0.22499E+02</wgt>
<wgt id='6036'>0.22568E+02</wgt>
<wgt id='6037'>0.22548E+02</wgt>
<wgt id='6038'>0.22504E+02</wgt>
<wgt id='6039'>0.22485E+02</wgt>
<wgt id='6040'>0.22533E+02</wgt>
<wgt id='6041'>0.22460E+02</wgt>
<wgt id='6042'>0.22568E+02</wgt>
<wgt id='6043'>0.22788E+02</wgt>
<wgt id='6044'>0.22374E+02</wgt>
<wgt id='6045'>0.22491E+02</wgt>
<wgt id='6046'>0.22553E+02</wgt>
<wgt id='6047'>0.22517E+02</wgt>
<wgt id='6048'>0.22320E+02</wgt>
<wgt id='6049'>0.22515E+02</wgt>
<wgt id='6050'>0.22493E+02</wgt>
<wgt id='7000'>0.21203E+02</wgt>
<wgt id='7001'>0.21198E+02</wgt>
<wgt id='7002'>0.21210E+02</wgt>
<wgt id='7003'>0.21268E+02</wgt>
<wgt id='7004'>0.21138E+02</wgt>
<wgt id='7005'>0.21243E+02</wgt>
<wgt id='7006'>0.21187E+02</wgt>
<wgt id='7007'>0.21121E+02</wgt>
<wgt id='7008'>0.21284E+02</wgt>
<wgt id='7009'>0.21237E+02</wgt>
<wgt id='7010'>0.21169E+02</wgt>
<wgt id='7011'>0.21008E+02</wgt>
<wgt id='7012'>0.21286E+02</wgt>
<wgt id='7013'>0.21203E+02</wgt>
<wgt id='7014'>0.21201E+02</wgt>
<wgt id='7015'>0.21144E+02</wgt>
<wgt id='7016'>0.21265E+02</wgt>
<wgt id='7017'>0.21145E+02</wgt>
<wgt id='7018'>0.21233E+02</wgt>
<wgt id='7019'>0.21177E+02</wgt>
<wgt id='7020'>0.21238E+02</wgt>
<wgt id='7021'>0.21195E+02</wgt>
<wgt id='7022'>0.21207E+02</wgt>
<wgt id='7023'>0.21420E+02</wgt>
<wgt id='7024'>0.20990E+02</wgt>
<wgt id='7025'>0.21289E+02</wgt>
<wgt id='7026'>0.20993E+02</wgt>
<wgt id='7027'>0.21290E+02</wgt>
<wgt id='7028'>0.21164E+02</wgt>
<wgt id='7029'>0.21121E+02</wgt>
<wgt id='7030'>0.21414E+02</wgt>
<wgt id='7031'>0.21194E+02</wgt>
<wgt id='7032'>0.21223E+02</wgt>
<wgt id='7033'>0.21179E+02</wgt>
<wgt id='7034'>0.21259E+02</wgt>
<wgt id='7035'>0.21242E+02</wgt>
<wgt id='7036'>0.21195E+02</wgt>
<wgt id='7037'>0.21210E+02</wgt>
<wgt id='7038'>0.21206E+02</wgt>
<wgt id='7039'>0.21178E+02</wgt>
<wgt id='7040'>0.21220E+02</wgt>
<wgt id='7041'>0.21162E+02</wgt>
<wgt id='7042'>0.21231E+02</wgt>
<wgt id='7043'>0.21221E+02</wgt>
<wgt id='7044'>0.21098E+02</wgt>
<wgt id='7045'>0.21019E+02</wgt>
<wgt id='7046'>0.21265E+02</wgt>
<wgt id='7047'>0.21228E+02</wgt>
<wgt id='7048'>0.21185E+02</wgt>
<wgt id='7049'>0.21166E+02</wgt>
<wgt id='7050'>0.21176E+02</wgt>
<wgt id='7060'>0.31968E+02</wgt>
<wgt id='8000'>0.21401E+02</wgt>
<wgt id='8001'>0.21396E+02</wgt>
<wgt id='8002'>0.21407E+02</wgt>
<wgt id='8003'>0.21403E+02</wgt>
<wgt id='8004'>0.21400E+02</wgt>
<wgt id='8005'>0.21351E+02</wgt>
<wgt id='8006'>0.21390E+02</wgt>
<wgt id='8007'>0.21378E+02</wgt>
<wgt id='8008'>0.21440E+02</wgt>
<wgt id='8009'>0.21480E+02</wgt>
<wgt id='8010'>0.21400E+02</wgt>
<wgt id='8011'>0.21391E+02</wgt>
<wgt id='8012'>0.21373E+02</wgt>
<wgt id='8013'>0.21394E+02</wgt>
<wgt id='8014'>0.21394E+02</wgt>
<wgt id='8015'>0.21385E+02</wgt>
<wgt id='8016'>0.21408E+02</wgt>
<wgt id='8017'>0.21404E+02</wgt>
<wgt id='8018'>0.21403E+02</wgt>
<wgt id='8019'>0.21437E+02</wgt>
<wgt id='8020'>0.21334E+02</wgt>
<wgt id='8021'>0.21402E+02</wgt>
<wgt id='8022'>0.21279E+02</wgt>
<wgt id='8023'>0.21422E+02</wgt>
<wgt id='8024'>0.21440E+02</wgt>
<wgt id='8025'>0.21470E+02</wgt>
<wgt id='8026'>0.21444E+02</wgt>
<wgt id='8027'>0.21368E+02</wgt>
<wgt id='8028'>0.21422E+02</wgt>
<wgt id='8029'>0.21250E+02</wgt>
<wgt id='8500'>0.22258E+02</wgt>
<wgt id='8501'>0.22199E+02</wgt>
<wgt id='8502'>0.22444E+02</wgt>
<wgt id='8503'>0.22388E+02</wgt>
<wgt id='8504'>0.22207E+02</wgt>
<wgt id='8505'>0.22177E+02</wgt>
<wgt id='8506'>0.22219E+02</wgt>
<wgt id='8507'>0.22348E+02</wgt>
<wgt id='8508'>0.22482E+02</wgt>
<wgt id='8509'>0.22169E+02</wgt>
<wgt id='8510'>0.22575E+02</wgt>
<wgt id='8511'>0.22271E+02</wgt>
<wgt id='8512'>0.22022E+02</wgt>
<wgt id='8513'>0.22289E+02</wgt>
<wgt id='8514'>0.22105E+02</wgt>
<wgt id='8515'>0.22287E+02</wgt>
<wgt id='8516'>0.22309E+02</wgt>
<wgt id='8517'>0.22188E+02</wgt>
<wgt id='8518'>0.22203E+02</wgt>
<wgt id='8519'>0.22211E+02</wgt>
<wgt id='8520'>0.22267E+02</wgt>
<wgt id='8521'>0.22149E+02</wgt>
<wgt id='8522'>0.22275E+02</wgt>
<wgt id='8523'>0.22212E+02</wgt>
<wgt id='8524'>0.22245E+02</wgt>
<wgt id='8525'>0.22234E+02</wgt>
<wgt id='8526'>0.22235E+02</wgt>
<wgt id='8527'>0.22266E+02</wgt>
<wgt id='8528'>0.22201E+02</wgt>
<wgt id='8529'>0.22241E+02</wgt>
<wgt id='8530'>0.22249E+02</wgt>
<wgt id='8531'>0.22250E+02</wgt>
<wgt id='8532'>0.22259E+02</wgt>
<wgt id='8533'>0.22217E+02</wgt>
<wgt id='8534'>0.22267E+02</wgt>
<wgt id='8535'>0.22306E+02</wgt>
<wgt id='8536'>0.22240E+02</wgt>
<wgt id='8537'>0.22266E+02</wgt>
<wgt id='8538'>0.22238E+02</wgt>
<wgt id='8539'>0.22263E+02</wgt>
<wgt id='8540'>0.22261E+02</wgt>
<wgt id='8541'>0.22269E+02</wgt>
<wgt id='8542'>0.22275E+02</wgt>
<wgt id='8543'>0.22238E+02</wgt>
<wgt id='8544'>0.22280E+02</wgt>
<wgt id='8545'>0.22275E+02</wgt>
<wgt id='8546'>0.22279E+02</wgt>
<wgt id='8547'>0.22240E+02</wgt>
<wgt id='8548'>0.22236E+02</wgt>
<wgt id='8549'>0.22259E+02</wgt>
<wgt id='8550'>0.22259E+02</wgt>
<wgt id='8551'>0.22236E+02</wgt>
<wgt id='8552'>0.22261E+02</wgt>
<wgt id='8553'>0.22247E+02</wgt>
<wgt id='8554'>0.22247E+02</wgt>
<wgt id='8555'>0.22260E+02</wgt>
<wgt id='8556'>0.22256E+02</wgt>
<wgt id='8557'>0.22253E+02</wgt>
<wgt id='8558'>0.22282E+02</wgt>
<wgt id='8559'>0.22247E+02</wgt>
<wgt id='8560'>0.22233E+02</wgt>
<wgt id='8561'>0.22255E+02</wgt>
<wgt id='8562'>0.22241E+02</wgt>
<wgt id='8563'>0.22259E+02</wgt>
<wgt id='8564'>0.22253E+02</wgt>
<wgt id='8565'>0.22257E+02</wgt>
<wgt id='8566'>0.22254E+02</wgt>
<wgt id='8567'>0.22255E+02</wgt>
<wgt id='8568'>0.22266E+02</wgt>
<wgt id='8569'>0.22264E+02</wgt>
<wgt id='8570'>0.22255E+02</wgt>
<wgt id='8571'>0.22248E+02</wgt>
<wgt id='8572'>0.22251E+02</wgt>
<wgt id='8573'>0.22248E+02</wgt>
<wgt id='8574'>0.22261E+02</wgt>
<wgt id='8575'>0.22255E+02</wgt>
<wgt id='8576'>0.22256E+02</wgt>
<wgt id='8577'>0.22256E+02</wgt>
<wgt id='8578'>0.22259E+02</wgt>
<wgt id='8579'>0.22271E+02</wgt>
<wgt id='8580'>0.22258E+02</wgt>
<wgt id='8581'>0.22262E+02</wgt>
<wgt id='8582'>0.22244E+02</wgt>
<wgt id='8583'>0.22266E+02</wgt>
<wgt id='8584'>0.22263E+02</wgt>
<wgt id='8585'>0.22262E+02</wgt>
<wgt id='8586'>0.22268E+02</wgt>
<wgt id='8587'>0.22255E+02</wgt>
<wgt id='8588'>0.22253E+02</wgt>
<wgt id='8589'>0.22258E+02</wgt>
<wgt id='8590'>0.22255E+02</wgt>
<wgt id='8591'>0.22254E+02</wgt>
<wgt id='8592'>0.22257E+02</wgt>
<wgt id='8593'>0.22250E+02</wgt>
<wgt id='8594'>0.22260E+02</wgt>
<wgt id='8595'>0.22260E+02</wgt>
<wgt id='8596'>0.22253E+02</wgt>
<wgt id='8597'>0.22261E+02</wgt>
<wgt id='8598'>0.22263E+02</wgt>
<wgt id='8599'>0.22260E+02</wgt>
<wgt id='8600'>0.22257E+02</wgt>
<wgt id='8601'>0.21846E+02</wgt>
<wgt id='8602'>0.22618E+02</wgt>
<wgt id='9000'>0.21195E+02</wgt>
<wgt id='9001'>0.21218E+02</wgt>
<wgt id='9002'>0.21294E+02</wgt>
<wgt id='9003'>0.21030E+02</wgt>
<wgt id='9004'>0.21159E+02</wgt>
<wgt id='9005'>0.21279E+02</wgt>
<wgt id='9006'>0.21147E+02</wgt>
<wgt id='9007'>0.21206E+02</wgt>
<wgt id='9008'>0.21231E+02</wgt>
<wgt id='9009'>0.21179E+02</wgt>
<wgt id='9010'>0.21141E+02</wgt>
<wgt id='9011'>0.21420E+02</wgt>
<wgt id='9012'>0.20994E+02</wgt>
<wgt id='9013'>0.20916E+02</wgt>
<wgt id='9014'>0.20995E+02</wgt>
<wgt id='9015'>0.21187E+02</wgt>
<wgt id='9016'>0.21347E+02</wgt>
<wgt id='9017'>0.21184E+02</wgt>
<wgt id='9018'>0.21162E+02</wgt>
<wgt id='9019'>0.21161E+02</wgt>
<wgt id='9020'>0.21287E+02</wgt>
<wgt id='9021'>0.21159E+02</wgt>
<wgt id='9022'>0.21223E+02</wgt>
<wgt id='9023'>0.21159E+02</wgt>
<wgt id='9024'>0.21171E+02</wgt>
<wgt id='9025'>0.21220E+02</wgt>
<wgt id='9026'>0.21196E+02</wgt>
<wgt id='9027'>0.21158E+02</wgt>
<wgt id='9028'>0.21214E+02</wgt>
<wgt id='9029'>0.21219E+02</wgt>
<wgt id='9030'>0.21195E+02</wgt>
<wgt id='9031'>0.21188E+02</wgt>
<wgt id='9032'>0.21214E+02</wgt>
<wgt id='9033'>0.21222E+02</wgt>
<wgt id='9034'>0.21183E+02</wgt>
<wgt id='9035'>0.21229E+02</wgt>
<wgt id='9036'>0.21194E+02</wgt>
<wgt id='9037'>0.21215E+02</wgt>
<wgt id='9038'>0.21197E+02</wgt>
<wgt id='9039'>0.21198E+02</wgt>
<wgt id='9040'>0.21171E+02</wgt>
<wgt id='9041'>0.21186E+02</wgt>
<wgt id='9042'>0.21192E+02</wgt>
<wgt id='9043'>0.21179E+02</wgt>
<wgt id='9044'>0.21202E+02</wgt>
<wgt id='9045'>0.21193E+02</wgt>
<wgt id='9046'>0.21166E+02</wgt>
<wgt id='9047'>0.21185E+02</wgt>
<wgt id='9048'>0.21202E+02</wgt>
<wgt id='9049'>0.21183E+02</wgt>
<wgt id='9050'>0.21200E+02</wgt>
<wgt id='9051'>0.21203E+02</wgt>
<wgt id='9052'>0.21200E+02</wgt>
<wgt id='9053'>0.21197E+02</wgt>
<wgt id='9054'>0.21184E+02</wgt>
<wgt id='9055'>0.21190E+02</wgt>
<wgt id='9056'>0.21214E+02</wgt>
<wgt id='9057'>0.21193E+02</wgt>
<wgt id='9058'>0.21179E+02</wgt>
<wgt id='9059'>0.21185E+02</wgt>
<wgt id='9060'>0.21187E+02</wgt>
<wgt id='9061'>0.21198E+02</wgt>
<wgt id='9062'>0.21198E+02</wgt>
<wgt id='9063'>0.21204E+02</wgt>
<wgt id='9064'>0.21190E+02</wgt>
<wgt id='9065'>0.21194E+02</wgt>
<wgt id='9066'>0.21197E+02</wgt>
<wgt id='9067'>0.21202E+02</wgt>
<wgt id='9068'>0.21202E+02</wgt>
<wgt id='9069'>0.21206E+02</wgt>
<wgt id='9070'>0.21192E+02</wgt>
<wgt id='9071'>0.21207E+02</wgt>
<wgt id='9072'>0.21208E+02</wgt>
<wgt id='9073'>0.21189E+02</wgt>
<wgt id='9074'>0.21198E+02</wgt>
<wgt id='9075'>0.21193E+02</wgt>
<wgt id='9076'>0.21193E+02</wgt>
<wgt id='9077'>0.21198E+02</wgt>
<wgt id='9078'>0.21196E+02</wgt>
<wgt id='9079'>0.21191E+02</wgt>
<wgt id='9080'>0.21209E+02</wgt>
<wgt id='9081'>0.21193E+02</wgt>
<wgt id='9082'>0.21200E+02</wgt>
<wgt id='9083'>0.21188E+02</wgt>
<wgt id='9084'>0.21189E+02</wgt>
<wgt id='9085'>0.21189E+02</wgt>
<wgt id='9086'>0.21198E+02</wgt>
<wgt id='9087'>0.21182E+02</wgt>
<wgt id='9088'>0.21190E+02</wgt>
<wgt id='9089'>0.21190E+02</wgt>
<wgt id='9090'>0.21198E+02</wgt>
<wgt id='9091'>0.21193E+02</wgt>
<wgt id='9092'>0.21194E+02</wgt>
<wgt id='9093'>0.21191E+02</wgt>
<wgt id='9094'>0.21193E+02</wgt>
<wgt id='9095'>0.21197E+02</wgt>
<wgt id='9096'>0.21191E+02</wgt>
<wgt id='9097'>0.21196E+02</wgt>
<wgt id='9098'>0.21195E+02</wgt>
<wgt id='9099'>0.21190E+02</wgt>
<wgt id='9100'>0.21194E+02</wgt>
<wgt id='9101'>0.20880E+02</wgt>
<wgt id='9102'>0.21459E+02</wgt>
<wgt id='10000'>0.22255E+02</wgt>
<wgt id='10001'>0.22351E+02</wgt>
<wgt id='10002'>0.22225E+02</wgt>
<wgt id='10003'>0.22254E+02</wgt>
<wgt id='10004'>0.22262E+02</wgt>
<wgt id='10005'>0.22813E+02</wgt>
<wgt id='10006'>0.22238E+02</wgt>
<wgt id='10007'>0.22249E+02</wgt>
<wgt id='10008'>0.22270E+02</wgt>
<wgt id='10009'>0.22212E+02</wgt>
<wgt id='10010'>0.22269E+02</wgt>
<wgt id='10011'>0.22229E+02</wgt>
<wgt id='10012'>0.22224E+02</wgt>
<wgt id='10013'>0.22252E+02</wgt>
<wgt id='10014'>0.22253E+02</wgt>
<wgt id='10015'>0.22277E+02</wgt>
<wgt id='10016'>0.22249E+02</wgt>
<wgt id='10017'>0.22147E+02</wgt>
<wgt id='10018'>0.22275E+02</wgt>
<wgt id='10019'>0.22225E+02</wgt>
<wgt id='10020'>0.22254E+02</wgt>
<wgt id='10021'>0.22253E+02</wgt>
<wgt id='10022'>0.22245E+02</wgt>
<wgt id='10023'>0.22258E+02</wgt>
<wgt id='10024'>0.22247E+02</wgt>
<wgt id='10025'>0.22244E+02</wgt>
<wgt id='10026'>0.22271E+02</wgt>
<wgt id='10027'>0.22269E+02</wgt>
<wgt id='10028'>0.22342E+02</wgt>
<wgt id='10029'>0.22281E+02</wgt>
<wgt id='10030'>0.22249E+02</wgt>
<wgt id='10031'>0.21846E+02</wgt>
<wgt id='10032'>0.22618E+02</wgt>
<wgt id='11000'>0.21192E+02</wgt>
<wgt id='11001'>0.21148E+02</wgt>
<wgt id='11002'>0.21271E+02</wgt>
<wgt id='11003'>0.21170E+02</wgt>
<wgt id='11004'>0.21273E+02</wgt>
<wgt id='11005'>0.20933E+02</wgt>
<wgt id='11006'>0.21194E+02</wgt>
<wgt id='11007'>0.21144E+02</wgt>
<wgt id='11008'>0.21145E+02</wgt>
<wgt id='11009'>0.21101E+02</wgt>
<wgt id='11010'>0.21253E+02</wgt>
<wgt id='11011'>0.21089E+02</wgt>
<wgt id='11012'>0.21212E+02</wgt>
<wgt id='11013'>0.21263E+02</wgt>
<wgt id='11014'>0.21135E+02</wgt>
<wgt id='11015'>0.21170E+02</wgt>
<wgt id='11016'>0.21168E+02</wgt>
<wgt id='11017'>0.21356E+02</wgt>
<wgt id='11018'>0.21188E+02</wgt>
<wgt id='11019'>0.21184E+02</wgt>
<wgt id='11020'>0.21230E+02</wgt>
<wgt id='11021'>0.21250E+02</wgt>
<wgt id='11022'>0.21585E+02</wgt>
<wgt id='11023'>0.21190E+02</wgt>
<wgt id='11024'>0.21187E+02</wgt>
<wgt id='11025'>0.21159E+02</wgt>
<wgt id='11026'>0.21195E+02</wgt>
<wgt id='11027'>0.21186E+02</wgt>
<wgt id='11028'>0.21193E+02</wgt>
<wgt id='11029'>0.21191E+02</wgt>
<wgt id='11030'>0.21193E+02</wgt>
<wgt id='11031'>0.20880E+02</wgt>
<wgt id='11032'>0.21459E+02</wgt>
<wgt id='12000'>0.23479E+02</wgt>
<wgt id='12001'>0.23447E+02</wgt>
<wgt id='12002'>0.23510E+02</wgt>
<wgt id='12003'>0.23534E+02</wgt>
<wgt id='12004'>0.23423E+02</wgt>
<wgt id='12005'>0.23517E+02</wgt>
<wgt id='12006'>0.23441E+02</wgt>
<wgt id='12007'>0.23544E+02</wgt>
<wgt id='12008'>0.23415E+02</wgt>
<wgt id='12009'>0.23511E+02</wgt>
<wgt id='12010'>0.23447E+02</wgt>
<wgt id='12011'>0.23425E+02</wgt>
<wgt id='12012'>0.23536E+02</wgt>
<wgt id='12013'>0.23389E+02</wgt>
<wgt id='12014'>0.23569E+02</wgt>
<wgt id='12015'>0.23481E+02</wgt>
<wgt id='12016'>0.23451E+02</wgt>
<wgt id='12017'>0.23555E+02</wgt>
<wgt id='12018'>0.23397E+02</wgt>
<wgt id='12019'>0.23403E+02</wgt>
<wgt id='12020'>0.23550E+02</wgt>
<wgt id='12021'>0.23564E+02</wgt>
<wgt id='12022'>0.23368E+02</wgt>
<wgt id='12023'>0.23377E+02</wgt>
<wgt id='12024'>0.23467E+02</wgt>
<wgt id='12025'>0.23531E+02</wgt>
<wgt id='12026'>0.23458E+02</wgt>
<wgt id='12027'>0.23485E+02</wgt>
<wgt id='12028'>0.23493E+02</wgt>
<wgt id='12050'>0.23479E+02</wgt>
<wgt id='12051'>0.23465E+02</wgt>
<wgt id='12052'>0.23482E+02</wgt>
<wgt id='12053'>0.23459E+02</wgt>
<wgt id='12054'>0.23481E+02</wgt>
<wgt id='12055'>0.23553E+02</wgt>
<wgt id='12056'>0.23332E+02</wgt>
<wgt id='12057'>0.23393E+02</wgt>
<wgt id='12058'>0.23559E+02</wgt>
<wgt id='12059'>0.23436E+02</wgt>
<wgt id='12060'>0.23528E+02</wgt>
<wgt id='12061'>0.23473E+02</wgt>
<wgt id='12062'>0.23512E+02</wgt>
<wgt id='12063'>0.23249E+02</wgt>
<wgt id='13000'>0.21390E+02</wgt>
<wgt id='13001'>0.21374E+02</wgt>
<wgt id='13002'>0.21404E+02</wgt>
<wgt id='13003'>0.21416E+02</wgt>
<wgt id='13004'>0.21361E+02</wgt>
<wgt id='13005'>0.21439E+02</wgt>
<wgt id='13006'>0.21339E+02</wgt>
<wgt id='13007'>0.21481E+02</wgt>
<wgt id='13008'>0.21299E+02</wgt>
<wgt id='13009'>0.21383E+02</wgt>
<wgt id='13010'>0.21395E+02</wgt>
<wgt id='13011'>0.21444E+02</wgt>
<wgt id='13012'>0.21334E+02</wgt>
<wgt id='13013'>0.21328E+02</wgt>
<wgt id='13014'>0.21449E+02</wgt>
<wgt id='13015'>0.21358E+02</wgt>
<wgt id='13016'>0.21404E+02</wgt>
<wgt id='13017'>0.21377E+02</wgt>
<wgt id='13018'>0.21396E+02</wgt>
<wgt id='13019'>0.21352E+02</wgt>
<wgt id='13020'>0.21424E+02</wgt>
<wgt id='13021'>0.21233E+02</wgt>
<wgt id='13022'>0.21516E+02</wgt>
<wgt id='13023'>0.21388E+02</wgt>
<wgt id='13024'>0.21387E+02</wgt>
<wgt id='13025'>0.21317E+02</wgt>
<wgt id='13026'>0.21410E+02</wgt>
<wgt id='13027'>0.21387E+02</wgt>
<wgt id='13028'>0.21413E+02</wgt>
<wgt id='13050'>0.21390E+02</wgt>
<wgt id='13051'>0.21397E+02</wgt>
<wgt id='13052'>0.21335E+02</wgt>
<wgt id='13053'>0.21388E+02</wgt>
<wgt id='13054'>0.21380E+02</wgt>
<wgt id='13055'>0.21339E+02</wgt>
<wgt id='13056'>0.21384E+02</wgt>
<wgt id='13057'>0.21319E+02</wgt>
<wgt id='13058'>0.21498E+02</wgt>
<wgt id='13059'>0.21334E+02</wgt>
<wgt id='13060'>0.21399E+02</wgt>
<wgt id='13061'>0.21331E+02</wgt>
<wgt id='13062'>0.21551E+02</wgt>
<wgt id='13063'>0.21274E+02</wgt>
<wgt id='14000'>0.21991E+02</wgt>
<wgt id='14001'>0.21988E+02</wgt>
<wgt id='14002'>0.21984E+02</wgt>
<wgt id='14003'>0.21981E+02</wgt>
<wgt id='14004'>0.21977E+02</wgt>
<wgt id='14005'>0.21974E+02</wgt>
<wgt id='14006'>0.21970E+02</wgt>
<wgt id='14007'>0.21967E+02</wgt>
<wgt id='14008'>0.21964E+02</wgt>
<wgt id='14009'>0.21960E+02</wgt>
<wgt id='14010'>0.21956E+02</wgt>
<wgt id='14011'>0.21953E+02</wgt>
<wgt id='14012'>0.21949E+02</wgt>
<wgt id='14013'>0.21946E+02</wgt>
<wgt id='14014'>0.21943E+02</wgt>
<wgt id='14015'>0.21939E+02</wgt>
<wgt id='14016'>0.21936E+02</wgt>
<wgt id='14017'>0.21932E+02</wgt>
<wgt id='14018'>0.21929E+02</wgt>
<wgt id='14019'>0.21925E+02</wgt>
<wgt id='14020'>0.21922E+02</wgt>
<wgt id='14021'>0.21918E+02</wgt>
<wgt id='14022'>0.21915E+02</wgt>
<wgt id='14023'>0.21911E+02</wgt>
<wgt id='14024'>0.21908E+02</wgt>
<wgt id='14025'>0.21904E+02</wgt>
<wgt id='14026'>0.21901E+02</wgt>
<wgt id='14027'>0.21897E+02</wgt>
<wgt id='14028'>0.21894E+02</wgt>
<wgt id='14029'>0.21890E+02</wgt>
<wgt id='14030'>0.21887E+02</wgt>
<wgt id='15000'>0.20930E+02</wgt>
<wgt id='15001'>0.20950E+02</wgt>
<wgt id='15002'>0.21027E+02</wgt>
<wgt id='15003'>0.20767E+02</wgt>
<wgt id='15004'>0.20894E+02</wgt>
<wgt id='15005'>0.21013E+02</wgt>
<wgt id='15006'>0.20884E+02</wgt>
<wgt id='15007'>0.20942E+02</wgt>
<wgt id='15008'>0.20966E+02</wgt>
<wgt id='15009'>0.20915E+02</wgt>
<wgt id='15010'>0.20876E+02</wgt>
<wgt id='15011'>0.21154E+02</wgt>
<wgt id='15012'>0.20733E+02</wgt>
<wgt id='15013'>0.20655E+02</wgt>
<wgt id='15014'>0.20732E+02</wgt>
<wgt id='15015'>0.20919E+02</wgt>
<wgt id='15016'>0.21082E+02</wgt>
<wgt id='15017'>0.20918E+02</wgt>
<wgt id='15018'>0.20897E+02</wgt>
<wgt id='15019'>0.20899E+02</wgt>
<wgt id='15020'>0.21022E+02</wgt>
<wgt id='15021'>0.20893E+02</wgt>
<wgt id='15022'>0.20958E+02</wgt>
<wgt id='15023'>0.20893E+02</wgt>
<wgt id='15024'>0.20904E+02</wgt>
<wgt id='15025'>0.20954E+02</wgt>
<wgt id='15026'>0.20929E+02</wgt>
<wgt id='15027'>0.20894E+02</wgt>
<wgt id='15028'>0.20949E+02</wgt>
<wgt id='15029'>0.20953E+02</wgt>
<wgt id='15030'>0.20929E+02</wgt>
<wgt id='15031'>0.20924E+02</wgt>
<wgt id='15032'>0.20948E+02</wgt>
<wgt id='15033'>0.20956E+02</wgt>
<wgt id='15034'>0.20919E+02</wgt>
<wgt id='15035'>0.20963E+02</wgt>
<wgt id='15036'>0.20929E+02</wgt>
<wgt id='15037'>0.20950E+02</wgt>
<wgt id='15038'>0.20932E+02</wgt>
<wgt id='15039'>0.20932E+02</wgt>
<wgt id='15040'>0.20906E+02</wgt>
<wgt id='15041'>0.20921E+02</wgt>
<wgt id='15042'>0.20926E+02</wgt>
<wgt id='15043'>0.20914E+02</wgt>
<wgt id='15044'>0.20937E+02</wgt>
<wgt id='15045'>0.20928E+02</wgt>
<wgt id='15046'>0.20902E+02</wgt>
<wgt id='15047'>0.20920E+02</wgt>
<wgt id='15048'>0.20937E+02</wgt>
<wgt id='15049'>0.20918E+02</wgt>
<wgt id='15050'>0.20935E+02</wgt>
<wgt id='15051'>0.20937E+02</wgt>
<wgt id='15052'>0.20935E+02</wgt>
<wgt id='15053'>0.20932E+02</wgt>
<wgt id='15054'>0.20919E+02</wgt>
<wgt id='15055'>0.20925E+02</wgt>
<wgt id='15056'>0.20948E+02</wgt>
<wgt id='15057'>0.20928E+02</wgt>
<wgt id='15058'>0.20915E+02</wgt>
<wgt id='15059'>0.20921E+02</wgt>
<wgt id='15060'>0.20923E+02</wgt>
<wgt id='15061'>0.20933E+02</wgt>
<wgt id='15062'>0.20933E+02</wgt>
<wgt id='15063'>0.20939E+02</wgt>
<wgt id='15064'>0.20925E+02</wgt>
<wgt id='15065'>0.20929E+02</wgt>
<wgt id='15066'>0.20931E+02</wgt>
<wgt id='15067'>0.20936E+02</wgt>
<wgt id='15068'>0.20937E+02</wgt>
<wgt id='15069'>0.20941E+02</wgt>
<wgt id='15070'>0.20927E+02</wgt>
<wgt id='15071'>0.20942E+02</wgt>
<wgt id='15072'>0.20942E+02</wgt>
<wgt id='15073'>0.20924E+02</wgt>
<wgt id='15074'>0.20933E+02</wgt>
<wgt id='15075'>0.20928E+02</wgt>
<wgt id='15076'>0.20928E+02</wgt>
<wgt id='15077'>0.20933E+02</wgt>
<wgt id='15078'>0.20932E+02</wgt>
<wgt id='15079'>0.20926E+02</wgt>
<wgt id='15080'>0.20944E+02</wgt>
<wgt id='15081'>0.20928E+02</wgt>
<wgt id='15082'>0.20935E+02</wgt>
<wgt id='15083'>0.20923E+02</wgt>
<wgt id='15084'>0.20924E+02</wgt>
<wgt id='15085'>0.20924E+02</wgt>
<wgt id='15086'>0.20933E+02</wgt>
<wgt id='15087'>0.20916E+02</wgt>
<wgt id='15088'>0.20925E+02</wgt>
<wgt id='15089'>0.20925E+02</wgt>
<wgt id='15090'>0.20933E+02</wgt>
<wgt id='15091'>0.20927E+02</wgt>
<wgt id='15092'>0.20929E+02</wgt>
<wgt id='15093'>0.20926E+02</wgt>
<wgt id='15094'>0.20928E+02</wgt>
<wgt id='15095'>0.20932E+02</wgt>
<wgt id='15096'>0.20926E+02</wgt>
<wgt id='15097'>0.20931E+02</wgt>
<wgt id='15098'>0.20929E+02</wgt>
<wgt id='15099'>0.20925E+02</wgt>
<wgt id='15100'>0.20929E+02</wgt>
<wgt id='15101'>0.20929E+02</wgt>
<wgt id='15102'>0.20928E+02</wgt>
<wgt id='15103'>0.20930E+02</wgt>
<wgt id='15104'>0.20930E+02</wgt>
<wgt id='15105'>0.20930E+02</wgt>
<wgt id='15106'>0.20930E+02</wgt>
<wgt id='15107'>0.20929E+02</wgt>
<wgt id='1500'>0.22197E+02</wgt>
<wgt id='1501'>0.20344E+02</wgt>
<wgt id='1502'>0.22194E+02</wgt>
<wgt id='1503'>0.22128E+02</wgt>
<wgt id='1504'>0.21937E+02</wgt>
<wgt id='1505'>0.19563E+02</wgt>
<wgt id='1506'>0.22416E+02</wgt>
<wgt id='1507'>0.22460E+02</wgt>
<wgt id='1508'>0.22357E+02</wgt>
<wgt id='1509'>0.22275E+02</wgt>
<wgt id='1510'>0.21481E+02</wgt>
<wgt id='1511'>0.21722E+02</wgt>
<wgt id='1512'>0.22596E+02</wgt>
<wgt id='1513'>0.22628E+02</wgt>
<wgt id='1514'>0.21673E+02</wgt>
<wgt id='1515'>0.22496E+02</wgt>
<wgt id='1516'>0.22492E+02</wgt>
<wgt id='1517'>0.21926E+02</wgt>
<wgt id='1518'>0.22027E+02</wgt>
<wgt id='1519'>0.22507E+02</wgt>
<wgt id='1520'>0.22563E+02</wgt>
<wgt id='1521'>0.22318E+02</wgt>
<wgt id='1522'>0.22006E+02</wgt>
<wgt id='1523'>0.23887E+02</wgt>
<wgt id='1524'>0.22058E+02</wgt>
<wgt id='1525'>0.22428E+02</wgt>
<wgt id='1526'>0.21905E+02</wgt>
<wgt id='1527'>0.21999E+02</wgt>
<wgt id='1528'>0.21994E+02</wgt>
<wgt id='1529'>0.22038E+02</wgt>
<wgt id='1530'>0.22666E+02</wgt>
<wgt id='1531'>0.22123E+02</wgt>
<wgt id='1532'>0.21627E+02</wgt>
<wgt id='1533'>0.22365E+02</wgt>
<wgt id='1534'>0.22313E+02</wgt>
<wgt id='1535'>0.22836E+02</wgt>
<wgt id='1536'>0.22689E+02</wgt>
<wgt id='1537'>0.22555E+02</wgt>
<wgt id='1538'>0.22460E+02</wgt>
<wgt id='1539'>0.21499E+02</wgt>
<wgt id='1540'>0.22500E+02</wgt>
<wgt id='1541'>0.22216E+02</wgt>
<wgt id='1542'>0.22348E+02</wgt>
<wgt id='1543'>0.22398E+02</wgt>
<wgt id='1544'>0.22031E+02</wgt>
<wgt id='1545'>0.22273E+02</wgt>
<wgt id='1546'>0.22479E+02</wgt>
<wgt id='1547'>0.21875E+02</wgt>
<wgt id='1548'>0.21888E+02</wgt>
<wgt id='1549'>0.22141E+02</wgt>
<wgt id='1550'>0.22199E+02</wgt>
<wgt id='1551'>0.22166E+02</wgt>
<wgt id='1552'>0.22015E+02</wgt>
<wgt id='1553'>0.22513E+02</wgt>
<wgt id='1554'>0.22301E+02</wgt>
<wgt id='1555'>0.22121E+02</wgt>
<wgt id='1556'>0.21675E+02</wgt>
<wgt id='1557'>0.22878E+02</wgt>
<wgt id='1558'>0.21953E+02</wgt>
<wgt id='1559'>0.22478E+02</wgt>
<wgt id='1560'>0.22132E+02</wgt>
<wgt id='1561'>0.22315E+02</wgt>
<wgt id='1562'>0.22211E+02</wgt>
<wgt id='1563'>0.22541E+02</wgt>
<wgt id='1564'>0.21792E+02</wgt>
<wgt id='1565'>0.22458E+02</wgt>
<wgt id='1566'>0.22320E+02</wgt>
<wgt id='1567'>0.23484E+02</wgt>
<wgt id='1568'>0.21856E+02</wgt>
<wgt id='1569'>0.21670E+02</wgt>
<wgt id='1570'>0.22157E+02</wgt>
<wgt id='1571'>0.22550E+02</wgt>
<wgt id='1572'>0.22202E+02</wgt>
<wgt id='1573'>0.20781E+02</wgt>
<wgt id='1574'>0.22407E+02</wgt>
<wgt id='1575'>0.22009E+02</wgt>
<wgt id='1576'>0.21692E+02</wgt>
<wgt id='1577'>0.22409E+02</wgt>
<wgt id='1578'>0.23000E+02</wgt>
<wgt id='1579'>0.22058E+02</wgt>
<wgt id='1580'>0.22306E+02</wgt>
<wgt id='1581'>0.22351E+02</wgt>
<wgt id='1582'>0.21974E+02</wgt>
<wgt id='1583'>0.22426E+02</wgt>
<wgt id='1584'>0.22213E+02</wgt>
<wgt id='1585'>0.21621E+02</wgt>
<wgt id='1586'>0.22097E+02</wgt>
<wgt id='1587'>0.22146E+02</wgt>
<wgt id='1588'>0.22201E+02</wgt>
<wgt id='1589'>0.22774E+02</wgt>
<wgt id='1590'>0.22072E+02</wgt>
<wgt id='1591'>0.21792E+02</wgt>
<wgt id='1592'>0.22572E+02</wgt>
<wgt id='1593'>0.22069E+02</wgt>
<wgt id='1594'>0.22681E+02</wgt>
<wgt id='1595'>0.21787E+02</wgt>
<wgt id='1596'>0.22568E+02</wgt>
<wgt id='1597'>0.22232E+02</wgt>
<wgt id='1598'>0.23020E+02</wgt>
<wgt id='1599'>0.22760E+02</wgt>
<wgt id='1600'>0.22278E+02</wgt>
<wgt id='1601'>0.21863E+02</wgt>
<wgt id='1602'>0.22376E+02</wgt>
<wgt id='1700'>0.21370E+02</wgt>
<wgt id='1800'>0.25448E+02</wgt>
<wgt id='1850'>0.30414E+02</wgt>
<wgt id='1900'>0.25592E+02</wgt>
<wgt id='1950'>0.29656E+02</wgt>
</rwgt>
</event>
<event>
      4   9999  2.16956E+01  4.93904E+01 -1.00000E+00  1.37363E-01
      21    -1     0     0   511   501  0.000000000E+00  0.000000000E+00  4.027596301E+02  4.027596301E+02  0.000000000E+00  0.00000E+00  9.000E+00
      21    -1     0     0   501   502  0.000000000E+00  0.000000000E+00 -1.222297421E+02  1.222297421E+02  0.000000000E+00  0.00000E+00  9.000E+00
      25     1     1     2     0     0 -1.654119618E+01  4.653816520E+01 -8.310296470E+01  1.580176246E+02  1.249962198E+02  0.00000E+00  9.000E+00
      21     1     1     2   511   502  1.654119618E+01 -4.653816520E+01  3.636328527E+02  3.669717476E+02  9.344061824E-06  0.00000E+00  9.000E+00
#rwgt            1           1   15.578504684239130                1        1910           0
<rwgt>
<wgt id='1001'>0.21696E+02</wgt>
<wgt id='1002'>0.20472E+02</wgt>
<wgt id='1003'>0.22691E+02</wgt>
<wgt id='1004'>0.20953E+02</wgt>
<wgt id='1005'>0.20239E+02</wgt>
<wgt id='1006'>0.21413E+02</wgt>
<wgt id='1007'>0.21345E+02</wgt>
<wgt id='1008'>0.19296E+02</wgt>
<wgt id='1009'>0.23235E+02</wgt>
<wgt id='2000'>0.21696E+02</wgt>
<wgt id='2001'>0.21668E+02</wgt>
<wgt id='2002'>0.21804E+02</wgt>
<wgt id='2003'>0.21793E+02</wgt>
<wgt id='2004'>0.21712E+02</wgt>
<wgt id='2005'>0.21638E+02</wgt>
<wgt id='2006'>0.21636E+02</wgt>
<wgt id='2007'>0.21608E+02</wgt>
<wgt id='2008'>0.21678E+02</wgt>
<wgt id='2009'>0.21707E+02</wgt>
<wgt id='2010'>0.21671E+02</wgt>
<wgt id='2011'>0.21837E+02</wgt>
<wgt id='2012'>0.21836E+02</wgt>
<wgt id='2013'>0.21921E+02</wgt>
<wgt id='2014'>0.21773E+02</wgt>
<wgt id='2015'>0.21745E+02</wgt>
<wgt id='2016'>0.21637E+02</wgt>
<wgt id='2017'>0.21696E+02</wgt>
<wgt id='2018'>0.21780E+02</wgt>
<wgt id='2019'>0.21681E+02</wgt>
<wgt id='2020'>0.21751E+02</wgt>
<wgt id='2021'>0.21667E+02</wgt>
<wgt id='2022'>0.21715E+02</wgt>
<wgt id='2023'>0.21712E+02</wgt>
<wgt id='2024'>0.21713E+02</wgt>
<wgt id='2025'>0.21711E+02</wgt>
<wgt id='2026'>0.21701E+02</wgt>
<wgt id='2027'>0.21684E+02</wgt>
<wgt id='2028'>0.21686E+02</wgt>
<wgt id='2029'>0.21709E+02</wgt>
<wgt id='2030'>0.21704E+02</wgt>
<wgt id='2031'>0.21703E+02</wgt>
<wgt id='2032'>0.21700E+02</wgt>
<wgt id='2033'>0.21701E+02</wgt>
<wgt id='2034'>0.21694E+02</wgt>
<wgt id='2035'>0.21694E+02</wgt>
<wgt id='2036'>0.21693E+02</wgt>
<wgt id='2037'>0.21697E+02</wgt>
<wgt id='2038'>0.21697E+02</wgt>
<wgt id='2039'>0.21697E+02</wgt>
<wgt id='2040'>0.21689E+02</wgt>
<wgt id='2041'>0.21687E+02</wgt>
<wgt id='2042'>0.21685E+02</wgt>
<wgt id='2043'>0.21697E+02</wgt>
<wgt id='2044'>0.21701E+02</wgt>
<wgt id='2045'>0.21695E+02</wgt>
<wgt id='2046'>0.21707E+02</wgt>
<wgt id='2047'>0.21699E+02</wgt>
<wgt id='2048'>0.21693E+02</wgt>
<wgt id='2049'>0.21695E+02</wgt>
<wgt id='2050'>0.21703E+02</wgt>
<wgt id='2051'>0.21695E+02</wgt>
<wgt id='2052'>0.21690E+02</wgt>
<wgt id='2053'>0.21697E+02</wgt>
<wgt id='2054'>0.21701E+02</wgt>
<wgt id='2055'>0.21696E+02</wgt>
<wgt id='2056'>0.21696E+02</wgt>
<wgt id='2057'>0.21695E+02</wgt>
<wgt id='2058'>0.21694E+02</wgt>
<wgt id='2059'>0.21692E+02</wgt>
<wgt id='2060'>0.21694E+02</wgt>
<wgt id='2061'>0.21695E+02</wgt>
<wgt id='2062'>0.21700E+02</wgt>
<wgt id='2063'>0.21692E+02</wgt>
<wgt id='2064'>0.21696E+02</wgt>
<wgt id='2065'>0.21703E+02</wgt>
<wgt id='2066'>0.21697E+02</wgt>
<wgt id='2067'>0.21695E+02</wgt>
<wgt id='2068'>0.21699E+02</wgt>
<wgt id='2069'>0.21695E+02</wgt>
<wgt id='2070'>0.21693E+02</wgt>
<wgt id='2071'>0.21695E+02</wgt>
<wgt id='2072'>0.21696E+02</wgt>
<wgt id='2073'>0.21699E+02</wgt>
<wgt id='2074'>0.21697E+02</wgt>
<wgt id='2075'>0.21694E+02</wgt>
<wgt id='2076'>0.21699E+02</wgt>
<wgt id='2077'>0.21693E+02</wgt>
<wgt id='2078'>0.21691E+02</wgt>
<wgt id='2079'>0.21698E+02</wgt>
<wgt id='2080'>0.21697E+02</wgt>
<wgt id='2081'>0.21697E+02</wgt>
<wgt id='2082'>0.21698E+02</wgt>
<wgt id='2083'>0.21697E+02</wgt>
<wgt id='2084'>0.21694E+02</wgt>
<wgt id='2085'>0.21691E+02</wgt>
<wgt id='2086'>0.21698E+02</wgt>
<wgt id='2087'>0.21696E+02</wgt>
<wgt id='2088'>0.21694E+02</wgt>
<wgt id='2089'>0.21697E+02</wgt>
<wgt id='2090'>0.21698E+02</wgt>
<wgt id='2091'>0.21695E+02</wgt>
<wgt id='2092'>0.21697E+02</wgt>
<wgt id='2093'>0.21696E+02</wgt>
<wgt id='2094'>0.21696E+02</wgt>
<wgt id='2095'>0.21694E+02</wgt>
<wgt id='2096'>0.21694E+02</wgt>
<wgt id='2097'>0.21696E+02</wgt>
<wgt id='2098'>0.21694E+02</wgt>
<wgt id='2099'>0.21696E+02</wgt>
<wgt id='2100'>0.21695E+02</wgt>
<wgt id='2101'>0.21402E+02</wgt>
<wgt id='2102'>0.21900E+02</wgt>
<wgt id='2104'>0.20363E+02</wgt>
<wgt id='2105'>0.20570E+02</wgt>
<wgt id='2106'>0.20846E+02</wgt>
<wgt id='2107'>0.21170E+02</wgt>
<wgt id='2108'>0.21609E+02</wgt>
<wgt id='2109'>0.21862E+02</wgt>
<wgt id='2110'>0.22112E+02</wgt>
<wgt id='2111'>0.22341E+02</wgt>
<wgt id='3000'>0.22542E+02</wgt>
<wgt id='3001'>0.22638E+02</wgt>
<wgt id='3002'>0.22428E+02</wgt>
<wgt id='3003'>0.22643E+02</wgt>
<wgt id='3004'>0.22590E+02</wgt>
<wgt id='3005'>0.22660E+02</wgt>
<wgt id='3006'>0.22585E+02</wgt>
<wgt id='3007'>0.22584E+02</wgt>
<wgt id='3008'>0.22465E+02</wgt>
<wgt id='3009'>0.22485E+02</wgt>
<wgt id='3010'>0.22448E+02</wgt>
<wgt id='3011'>0.22615E+02</wgt>
<wgt id='3012'>0.22733E+02</wgt>
<wgt id='3013'>0.22325E+02</wgt>
<wgt id='3014'>0.22639E+02</wgt>
<wgt id='3015'>0.22643E+02</wgt>
<wgt id='3016'>0.22555E+02</wgt>
<wgt id='3017'>0.22648E+02</wgt>
<wgt id='3018'>0.22568E+02</wgt>
<wgt id='3019'>0.22462E+02</wgt>
<wgt id='3020'>0.22527E+02</wgt>
<wgt id='3021'>0.22491E+02</wgt>
<wgt id='3022'>0.22538E+02</wgt>
<wgt id='3023'>0.22518E+02</wgt>
<wgt id='3024'>0.22542E+02</wgt>
<wgt id='3025'>0.22543E+02</wgt>
<wgt id='3026'>0.22549E+02</wgt>
<wgt id='3027'>0.22550E+02</wgt>
<wgt id='3028'>0.22526E+02</wgt>
<wgt id='3029'>0.22551E+02</wgt>
<wgt id='3030'>0.22555E+02</wgt>
<wgt id='3031'>0.22547E+02</wgt>
<wgt id='3032'>0.22540E+02</wgt>
<wgt id='3033'>0.22542E+02</wgt>
<wgt id='3034'>0.22546E+02</wgt>
<wgt id='3035'>0.22547E+02</wgt>
<wgt id='3036'>0.22546E+02</wgt>
<wgt id='3037'>0.22543E+02</wgt>
<wgt id='3038'>0.22542E+02</wgt>
<wgt id='3039'>0.22551E+02</wgt>
<wgt id='3040'>0.22541E+02</wgt>
<wgt id='3041'>0.22537E+02</wgt>
<wgt id='3042'>0.22533E+02</wgt>
<wgt id='3043'>0.22534E+02</wgt>
<wgt id='3044'>0.22550E+02</wgt>
<wgt id='3045'>0.22549E+02</wgt>
<wgt id='3046'>0.22546E+02</wgt>
<wgt id='3047'>0.22539E+02</wgt>
<wgt id='3048'>0.22544E+02</wgt>
<wgt id='3049'>0.22538E+02</wgt>
<wgt id='3050'>0.22539E+02</wgt>
<wgt id='3051'>0.22551E+02</wgt>
<wgt id='3052'>0.22541E+02</wgt>
<wgt id='3053'>0.22542E+02</wgt>
<wgt id='3054'>0.22541E+02</wgt>
<wgt id='3055'>0.22547E+02</wgt>
<wgt id='3056'>0.22545E+02</wgt>
<wgt id='3057'>0.22543E+02</wgt>
<wgt id='3058'>0.22539E+02</wgt>
<wgt id='3059'>0.22544E+02</wgt>
<wgt id='3060'>0.22544E+02</wgt>
<wgt id='3061'>0.22549E+02</wgt>
<wgt id='3062'>0.22545E+02</wgt>
<wgt id='3063'>0.22541E+02</wgt>
<wgt id='3064'>0.22542E+02</wgt>
<wgt id='3065'>0.22542E+02</wgt>
<wgt id='3066'>0.22544E+02</wgt>
<wgt id='3067'>0.22538E+02</wgt>
<wgt id='3068'>0.22542E+02</wgt>
<wgt id='3069'>0.22540E+02</wgt>
<wgt id='3070'>0.22539E+02</wgt>
<wgt id='3071'>0.22542E+02</wgt>
<wgt id='3072'>0.22544E+02</wgt>
<wgt id='3073'>0.22542E+02</wgt>
<wgt id='3074'>0.22546E+02</wgt>
<wgt id='3075'>0.22545E+02</wgt>
<wgt id='3076'>0.22540E+02</wgt>
<wgt id='3077'>0.22541E+02</wgt>
<wgt id='3078'>0.22546E+02</wgt>
<wgt id='3079'>0.22539E+02</wgt>
<wgt id='3080'>0.22545E+02</wgt>
<wgt id='3081'>0.22542E+02</wgt>
<wgt id='3082'>0.22542E+02</wgt>
<wgt id='3083'>0.22540E+02</wgt>
<wgt id='3084'>0.22539E+02</wgt>
<wgt id='3085'>0.22540E+02</wgt>
<wgt id='3086'>0.22538E+02</wgt>
<wgt id='3087'>0.22542E+02</wgt>
<wgt id='3088'>0.22542E+02</wgt>
<wgt id='3089'>0.22542E+02</wgt>
<wgt id='3090'>0.22541E+02</wgt>
<wgt id='3091'>0.22542E+02</wgt>
<wgt id='3092'>0.22543E+02</wgt>
<wgt id='3093'>0.22542E+02</wgt>
<wgt id='3094'>0.22543E+02</wgt>
<wgt id='3095'>0.22542E+02</wgt>
<wgt id='3096'>0.22542E+02</wgt>
<wgt id='3097'>0.22542E+02</wgt>
<wgt id='3098'>0.22543E+02</wgt>
<wgt id='3099'>0.22543E+02</wgt>
<wgt id='3100'>0.22542E+02</wgt>
<wgt id='3101'>0.22259E+02</wgt>
<wgt id='3102'>0.22913E+02</wgt>
<wgt id='5000'>0.21004E+02</wgt>
<wgt id='5001'>0.20919E+02</wgt>
<wgt id='5002'>0.20970E+02</wgt>
<wgt id='5003'>0.20848E+02</wgt>
<wgt id='5004'>0.21087E+02</wgt>
<wgt id='5005'>0.20533E+02</wgt>
<wgt id='5006'>0.21468E+02</wgt>
<wgt id='5007'>0.21178E+02</wgt>
<wgt id='5008'>0.20715E+02</wgt>
<wgt id='5009'>0.21313E+02</wgt>
<wgt id='5010'>0.20852E+02</wgt>
<wgt id='5011'>0.20967E+02</wgt>
<wgt id='5012'>0.20986E+02</wgt>
<wgt id='5013'>0.20461E+02</wgt>
<wgt id='5014'>0.20950E+02</wgt>
<wgt id='5015'>0.21188E+02</wgt>
<wgt id='5016'>0.20443E+02</wgt>
<wgt id='5017'>0.21110E+02</wgt>
<wgt id='5018'>0.20892E+02</wgt>
<wgt id='5019'>0.20833E+02</wgt>
<wgt id='5020'>0.21151E+02</wgt>
<wgt id='5021'>0.21100E+02</wgt>
<wgt id='5022'>0.20942E+02</wgt>
<wgt id='5023'>0.20947E+02</wgt>
<wgt id='5024'>0.21059E+02</wgt>
<wgt id='5025'>0.20945E+02</wgt>
<wgt id='5026'>0.21052E+02</wgt>
<wgt id='5027'>0.21262E+02</wgt>
<wgt id='5028'>0.20570E+02</wgt>
<wgt id='5029'>0.20532E+02</wgt>
<wgt id='5030'>0.21287E+02</wgt>
<wgt id='5031'>0.20732E+02</wgt>
<wgt id='5032'>0.21396E+02</wgt>
<wgt id='5033'>0.20788E+02</wgt>
<wgt id='5034'>0.21190E+02</wgt>
<wgt id='5035'>0.20567E+02</wgt>
<wgt id='5036'>0.21365E+02</wgt>
<wgt id='5037'>0.21036E+02</wgt>
<wgt id='5038'>0.20955E+02</wgt>
<wgt id='5039'>0.21387E+02</wgt>
<wgt id='5040'>0.20808E+02</wgt>
<wgt id='5041'>0.20729E+02</wgt>
<wgt id='5042'>0.21045E+02</wgt>
<wgt id='5043'>0.21232E+02</wgt>
<wgt id='5044'>0.20352E+02</wgt>
<wgt id='5045'>0.21685E+02</wgt>
<wgt id='5046'>0.20898E+02</wgt>
<wgt id='5047'>0.21135E+02</wgt>
<wgt id='5048'>0.21178E+02</wgt>
<wgt id='5049'>0.21012E+02</wgt>
<wgt id='5050'>0.21051E+02</wgt>
<wgt id='5051'>0.21070E+02</wgt>
<wgt id='5052'>0.20972E+02</wgt>
<wgt id='5053'>0.20817E+02</wgt>
<wgt id='5054'>0.21583E+02</wgt>
<wgt id='5055'>0.20869E+02</wgt>
<wgt id='5056'>0.21115E+02</wgt>
<wgt id='5060'>0.20784E+02</wgt>
<wgt id='5070'>0.21133E+02</wgt>
<wgt id='4000'>0.22223E+02</wgt>
<wgt id='4001'>0.22241E+02</wgt>
<wgt id='4002'>0.22294E+02</wgt>
<wgt id='4003'>0.22867E+02</wgt>
<wgt id='4004'>0.22015E+02</wgt>
<wgt id='4005'>0.22320E+02</wgt>
<wgt id='4006'>0.22128E+02</wgt>
<wgt id='4007'>0.22502E+02</wgt>
<wgt id='4008'>0.22141E+02</wgt>
<wgt id='4009'>0.21664E+02</wgt>
<wgt id='4010'>0.22668E+02</wgt>
<wgt id='4011'>0.22575E+02</wgt>
<wgt id='4012'>0.22027E+02</wgt>
<wgt id='4013'>0.21226E+02</wgt>
<wgt id='4014'>0.22808E+02</wgt>
<wgt id='4015'>0.22419E+02</wgt>
<wgt id='4016'>0.22095E+02</wgt>
<wgt id='4017'>0.22004E+02</wgt>
<wgt id='4018'>0.22484E+02</wgt>
<wgt id='4019'>0.22523E+02</wgt>
<wgt id='4020'>0.21883E+02</wgt>
<wgt id='4021'>0.22278E+02</wgt>
<wgt id='4022'>0.22102E+02</wgt>
<wgt id='4023'>0.22091E+02</wgt>
<wgt id='4024'>0.22340E+02</wgt>
<wgt id='4025'>0.21776E+02</wgt>
<wgt id='4026'>0.22639E+02</wgt>
<wgt id='4027'>0.22125E+02</wgt>
<wgt id='4028'>0.22355E+02</wgt>
<wgt id='4029'>0.22027E+02</wgt>
<wgt id='4030'>0.22290E+02</wgt>
<wgt id='4031'>0.22245E+02</wgt>
<wgt id='4032'>0.22195E+02</wgt>
<wgt id='4033'>0.22238E+02</wgt>
<wgt id='4034'>0.22185E+02</wgt>
<wgt id='4035'>0.22670E+02</wgt>
<wgt id='4036'>0.21789E+02</wgt>
<wgt id='4037'>0.22438E+02</wgt>
<wgt id='4038'>0.21868E+02</wgt>
<wgt id='4039'>0.22207E+02</wgt>
<wgt id='4040'>0.22194E+02</wgt>
<wgt id='4041'>0.22459E+02</wgt>
<wgt id='4042'>0.21992E+02</wgt>
<wgt id='4043'>0.22457E+02</wgt>
<wgt id='4044'>0.21927E+02</wgt>
<wgt id='4045'>0.21952E+02</wgt>
<wgt id='4046'>0.22089E+02</wgt>
<wgt id='4047'>0.21906E+02</wgt>
<wgt id='4048'>0.22586E+02</wgt>
<wgt id='4049'>0.22420E+02</wgt>
<wgt id='4050'>0.21754E+02</wgt>
<wgt id='4051'>0.22177E+02</wgt>
<wgt id='4052'>0.22167E+02</wgt>
<wgt id='4053'>0.21603E+02</wgt>
<wgt id='4054'>0.22352E+02</wgt>
<wgt id='4055'>0.22046E+02</wgt>
<wgt id='4056'>0.22380E+02</wgt>
<wgt id='4060'>0.21885E+02</wgt>
<wgt id='4070'>0.22491E+02</wgt>
<wgt id='4080'>0.22528E+02</wgt>
<wgt id='6000'>0.22560E+02</wgt>
<wgt id='6001'>0.22577E+02</wgt>
<wgt id='6002'>0.22543E+02</wgt>
<wgt id='6003'>0.22573E+02</wgt>
<wgt id='6004'>0.22551E+02</wgt>
<wgt id='6005'>0.22620E+02</wgt>
<wgt id='6006'>0.22505E+02</wgt>
<wgt id='6007'>0.22458E+02</wgt>
<wgt id='6008'>0.22675E+02</wgt>
<wgt id='6009'>0.22649E+02</wgt>
<wgt id='6010'>0.22474E+02</wgt>
<wgt id='6011'>0.22616E+02</wgt>
<wgt id='6012'>0.22437E+02</wgt>
<wgt id='6013'>0.22531E+02</wgt>
<wgt id='6014'>0.22611E+02</wgt>
<wgt id='6015'>0.22483E+02</wgt>
<wgt id='6016'>0.22604E+02</wgt>
<wgt id='6017'>0.22413E+02</wgt>
<wgt id='6018'>0.22735E+02</wgt>
<wgt id='6019'>0.22591E+02</wgt>
<wgt id='6020'>0.22533E+02</wgt>
<wgt id='6021'>0.22502E+02</wgt>
<wgt id='6022'>0.22638E+02</wgt>
<wgt id='6023'>0.22384E+02</wgt>
<wgt id='6024'>0.22682E+02</wgt>
<wgt id='6025'>0.22255E+02</wgt>
<wgt id='6026'>0.22823E+02</wgt>
<wgt id='6027'>0.22629E+02</wgt>
<wgt id='6028'>0.22561E+02</wgt>
<wgt id='6029'>0.22730E+02</wgt>
<wgt id='6030'>0.22362E+02</wgt>
<wgt id='6031'>0.22615E+02</wgt>
<wgt id='6032'>0.22490E+02</wgt>
<wgt id='6033'>0.22597E+02</wgt>
<wgt id='6034'>0.22519E+02</wgt>
<wgt id='6035'>0.22540E+02</wgt>
<wgt id='6036'>0.22659E+02</wgt>
<wgt id='6037'>0.22604E+02</wgt>
<wgt id='6038'>0.22557E+02</wgt>
<wgt id='6039'>0.22541E+02</wgt>
<wgt id='6040'>0.22580E+02</wgt>
<wgt id='6041'>0.22524E+02</wgt>
<wgt id='6042'>0.22607E+02</wgt>
<wgt id='6043'>0.22895E+02</wgt>
<wgt id='6044'>0.22405E+02</wgt>
<wgt id='6045'>0.22538E+02</wgt>
<wgt id='6046'>0.22619E+02</wgt>
<wgt id='6047'>0.22455E+02</wgt>
<wgt id='6048'>0.22476E+02</wgt>
<wgt id='6049'>0.22512E+02</wgt>
<wgt id='6050'>0.22569E+02</wgt>
<wgt id='7000'>0.21160E+02</wgt>
<wgt id='7001'>0.21158E+02</wgt>
<wgt id='7002'>0.21163E+02</wgt>
<wgt id='7003'>0.21233E+02</wgt>
<wgt id='7004'>0.21087E+02</wgt>
<wgt id='7005'>0.21205E+02</wgt>
<wgt id='7006'>0.21142E+02</wgt>
<wgt id='7007'>0.21063E+02</wgt>
<wgt id='7008'>0.21256E+02</wgt>
<wgt id='7009'>0.21204E+02</wgt>
<wgt id='7010'>0.21117E+02</wgt>
<wgt id='7011'>0.20922E+02</wgt>
<wgt id='7012'>0.21264E+02</wgt>
<wgt id='7013'>0.21161E+02</wgt>
<wgt id='7014'>0.21159E+02</wgt>
<wgt id='7015'>0.21090E+02</wgt>
<wgt id='7016'>0.21236E+02</wgt>
<wgt id='7017'>0.21079E+02</wgt>
<wgt id='7018'>0.21204E+02</wgt>
<wgt id='7019'>0.21130E+02</wgt>
<wgt id='7020'>0.21201E+02</wgt>
<wgt id='7021'>0.21151E+02</wgt>
<wgt id='7022'>0.21165E+02</wgt>
<wgt id='7023'>0.21417E+02</wgt>
<wgt id='7024'>0.20910E+02</wgt>
<wgt id='7025'>0.21263E+02</wgt>
<wgt id='7026'>0.20911E+02</wgt>
<wgt id='7027'>0.21268E+02</wgt>
<wgt id='7028'>0.21115E+02</wgt>
<wgt id='7029'>0.21045E+02</wgt>
<wgt id='7030'>0.21463E+02</wgt>
<wgt id='7031'>0.21165E+02</wgt>
<wgt id='7032'>0.21152E+02</wgt>
<wgt id='7033'>0.21126E+02</wgt>
<wgt id='7034'>0.21241E+02</wgt>
<wgt id='7035'>0.21237E+02</wgt>
<wgt id='7036'>0.21138E+02</wgt>
<wgt id='7037'>0.21170E+02</wgt>
<wgt id='7038'>0.21166E+02</wgt>
<wgt id='7039'>0.21143E+02</wgt>
<wgt id='7040'>0.21171E+02</wgt>
<wgt id='7041'>0.21118E+02</wgt>
<wgt id='7042'>0.21183E+02</wgt>
<wgt id='7043'>0.21181E+02</wgt>
<wgt id='7044'>0.21047E+02</wgt>
<wgt id='7045'>0.21004E+02</wgt>
<wgt id='7046'>0.21180E+02</wgt>
<wgt id='7047'>0.21161E+02</wgt>
<wgt id='7048'>0.21151E+02</wgt>
<wgt id='7049'>0.21169E+02</wgt>
<wgt id='7050'>0.21085E+02</wgt>
<wgt id='7060'>0.31691E+02</wgt>
<wgt id='8000'>0.21476E+02</wgt>
<wgt id='8001'>0.21470E+02</wgt>
<wgt id='8002'>0.21483E+02</wgt>
<wgt id='8003'>0.21478E+02</wgt>
<wgt id='8004'>0.21475E+02</wgt>
<wgt id='8005'>0.21414E+02</wgt>
<wgt id='8006'>0.21457E+02</wgt>
<wgt id='8007'>0.21435E+02</wgt>
<wgt id='8008'>0.21515E+02</wgt>
<wgt id='8009'>0.21561E+02</wgt>
<wgt id='8010'>0.21481E+02</wgt>
<wgt id='8011'>0.21461E+02</wgt>
<wgt id='8012'>0.21459E+02</wgt>
<wgt id='8013'>0.21481E+02</wgt>
<wgt id='8014'>0.21454E+02</wgt>
<wgt id='8015'>0.21457E+02</wgt>
<wgt id='8016'>0.21481E+02</wgt>
<wgt id='8017'>0.21487E+02</wgt>
<wgt id='8018'>0.21463E+02</wgt>
<wgt id='8019'>0.21520E+02</wgt>
<wgt id='8020'>0.21392E+02</wgt>
<wgt id='8021'>0.21482E+02</wgt>
<wgt id='8022'>0.21324E+02</wgt>
<wgt id='8023'>0.21507E+02</wgt>
<wgt id='8024'>0.21542E+02</wgt>
<wgt id='8025'>0.21567E+02</wgt>
<wgt id='8026'>0.21525E+02</wgt>
<wgt id='8027'>0.21429E+02</wgt>
<wgt id='8028'>0.21500E+02</wgt>
<wgt id='8029'>0.21315E+02</wgt>
<wgt id='8500'>0.22238E+02</wgt>
<wgt id='8501'>0.22195E+02</wgt>
<wgt id='8502'>0.22460E+02</wgt>
<wgt id='8503'>0.22404E+02</wgt>
<wgt id='8504'>0.22189E+02</wgt>
<wgt id='8505'>0.22136E+02</wgt>
<wgt id='8506'>0.22143E+02</wgt>
<wgt id='8507'>0.22436E+02</wgt>
<wgt id='8508'>0.22653E+02</wgt>
<wgt id='8509'>0.22064E+02</wgt>
<wgt id='8510'>0.22588E+02</wgt>
<wgt id='8511'>0.22257E+02</wgt>
<wgt id='8512'>0.21956E+02</wgt>
<wgt id='8513'>0.22276E+02</wgt>
<wgt id='8514'>0.22154E+02</wgt>
<wgt id='8515'>0.22241E+02</wgt>
<wgt id='8516'>0.22306E+02</wgt>
<wgt id='8517'>0.22201E+02</wgt>
<wgt id='8518'>0.22182E+02</wgt>
<wgt id='8519'>0.22185E+02</wgt>
<wgt id='8520'>0.22254E+02</wgt>
<wgt id='8521'>0.22137E+02</wgt>
<wgt id='8522'>0.22248E+02</wgt>
<wgt id='8523'>0.22198E+02</wgt>
<wgt id='8524'>0.22228E+02</wgt>
<wgt id='8525'>0.22209E+02</wgt>
<wgt id='8526'>0.22208E+02</wgt>
<wgt id='8527'>0.22246E+02</wgt>
<wgt id='8528'>0.22178E+02</wgt>
<wgt id='8529'>0.22222E+02</wgt>
<wgt id='8530'>0.22226E+02</wgt>
<wgt id='8531'>0.22231E+02</wgt>
<wgt id='8532'>0.22241E+02</wgt>
<wgt id='8533'>0.22198E+02</wgt>
<wgt id='8534'>0.22243E+02</wgt>
<wgt id='8535'>0.22286E+02</wgt>
<wgt id='8536'>0.22221E+02</wgt>
<wgt id='8537'>0.22246E+02</wgt>
<wgt id='8538'>0.22217E+02</wgt>
<wgt id='8539'>0.22240E+02</wgt>
<wgt id='8540'>0.22237E+02</wgt>
<wgt id='8541'>0.22247E+02</wgt>
<wgt id='8542'>0.22252E+02</wgt>
<wgt id='8543'>0.22221E+02</wgt>
<wgt id='8544'>0.22255E+02</wgt>
<wgt id='8545'>0.22255E+02</wgt>
<wgt id='8546'>0.22260E+02</wgt>
<wgt id='8547'>0.22223E+02</wgt>
<wgt id='8548'>0.22216E+02</wgt>
<wgt id='8549'>0.22238E+02</wgt>
<wgt id='8550'>0.22244E+02</wgt>
<wgt id='8551'>0.22217E+02</wgt>
<wgt id='8552'>0.22245E+02</wgt>
<wgt id='8553'>0.22232E+02</wgt>
<wgt id='8554'>0.22231E+02</wgt>
<wgt id='8555'>0.22240E+02</wgt>
<wgt id='8556'>0.22238E+02</wgt>
<wgt id='8557'>0.22232E+02</wgt>
<wgt id='8558'>0.22260E+02</wgt>
<wgt id='8559'>0.22226E+02</wgt>
<wgt id='8560'>0.22216E+02</wgt>
<wgt id='8561'>0.22232E+02</wgt>
<wgt id='8562'>0.22220E+02</wgt>
<wgt id='8563'>0.22240E+02</wgt>
<wgt id='8564'>0.22234E+02</wgt>
<wgt id='8565'>0.22236E+02</wgt>
<wgt id='8566'>0.22232E+02</wgt>
<wgt id='8567'>0.22236E+02</wgt>
<wgt id='8568'>0.22245E+02</wgt>
<wgt id='8569'>0.22243E+02</wgt>
<wgt id='8570'>0.22238E+02</wgt>
<wgt id='8571'>0.22231E+02</wgt>
<wgt id='8572'>0.22232E+02</wgt>
<wgt id='8573'>0.22228E+02</wgt>
<wgt id='8574'>0.22246E+02</wgt>
<wgt id='8575'>0.22237E+02</wgt>
<wgt id='8576'>0.22235E+02</wgt>
<wgt id='8577'>0.22239E+02</wgt>
<wgt id='8578'>0.22242E+02</wgt>
<wgt id='8579'>0.22250E+02</wgt>
<wgt id='8580'>0.22238E+02</wgt>
<wgt id='8581'>0.22241E+02</wgt>
<wgt id='8582'>0.22224E+02</wgt>
<wgt id='8583'>0.22248E+02</wgt>
<wgt id='8584'>0.22242E+02</wgt>
<wgt id='8585'>0.22242E+02</wgt>
<wgt id='8586'>0.22246E+02</wgt>
<wgt id='8587'>0.22235E+02</wgt>
<wgt id='8588'>0.22232E+02</wgt>
<wgt id='8589'>0.22239E+02</wgt>
<wgt id='8590'>0.22235E+02</wgt>
<wgt id='8591'>0.22237E+02</wgt>
<wgt id='8592'>0.22238E+02</wgt>
<wgt id='8593'>0.22230E+02</wgt>
<wgt id='8594'>0.22242E+02</wgt>
<wgt id='8595'>0.22241E+02</wgt>
<wgt id='8596'>0.22232E+02</wgt>
<wgt id='8597'>0.22241E+02</wgt>
<wgt id='8598'>0.22243E+02</wgt>
<wgt id='8599'>0.22241E+02</wgt>
<wgt id='8600'>0.22238E+02</wgt>
<wgt id='8601'>0.21995E+02</wgt>
<wgt id='8602'>0.22411E+02</wgt>
<wgt id='9000'>0.21146E+02</wgt>
<wgt id='9001'>0.21179E+02</wgt>
<wgt id='9002'>0.21267E+02</wgt>
<wgt id='9003'>0.20942E+02</wgt>
<wgt id='9004'>0.21095E+02</wgt>
<wgt id='9005'>0.21243E+02</wgt>
<wgt id='9006'>0.21096E+02</wgt>
<wgt id='9007'>0.21204E+02</wgt>
<wgt id='9008'>0.21213E+02</wgt>
<wgt id='9009'>0.21125E+02</wgt>
<wgt id='9010'>0.21116E+02</wgt>
<wgt id='9011'>0.21398E+02</wgt>
<wgt id='9012'>0.20817E+02</wgt>
<wgt id='9013'>0.20834E+02</wgt>
<wgt id='9014'>0.20875E+02</wgt>
<wgt id='9015'>0.21124E+02</wgt>
<wgt id='9016'>0.21237E+02</wgt>
<wgt id='9017'>0.21160E+02</wgt>
<wgt id='9018'>0.21136E+02</wgt>
<wgt id='9019'>0.21121E+02</wgt>
<wgt id='9020'>0.21232E+02</wgt>
<wgt id='9021'>0.21123E+02</wgt>
<wgt id='9022'>0.21170E+02</wgt>
<wgt id='9023'>0.21114E+02</wgt>
<wgt id='9024'>0.21119E+02</wgt>
<wgt id='9025'>0.21171E+02</wgt>
<wgt id='9026'>0.21149E+02</wgt>
<wgt id='9027'>0.21118E+02</wgt>
<wgt id='9028'>0.21164E+02</wgt>
<wgt id='9029'>0.21170E+02</wgt>
<wgt id='9030'>0.21148E+02</wgt>
<wgt id='9031'>0.21142E+02</wgt>
<wgt id='9032'>0.21165E+02</wgt>
<wgt id='9033'>0.21174E+02</wgt>
<wgt id='9034'>0.21134E+02</wgt>
<wgt id='9035'>0.21180E+02</wgt>
<wgt id='9036'>0.21146E+02</wgt>
<wgt id='9037'>0.21166E+02</wgt>
<wgt id='9038'>0.21148E+02</wgt>
<wgt id='9039'>0.21150E+02</wgt>
<wgt id='9040'>0.21124E+02</wgt>
<wgt id='9041'>0.21136E+02</wgt>
<wgt id='9042'>0.21141E+02</wgt>
<wgt id='9043'>0.21133E+02</wgt>
<wgt id='9044'>0.21153E+02</wgt>
<wgt id='9045'>0.21143E+02</wgt>
<wgt id='9046'>0.21120E+02</wgt>
<wgt id='9047'>0.21136E+02</wgt>
<wgt id='9048'>0.21152E+02</wgt>
<wgt id='9049'>0.21135E+02</wgt>
<wgt id='9050'>0.21151E+02</wgt>
<wgt id='9051'>0.21154E+02</wgt>
<wgt id='9052'>0.21151E+02</wgt>
<wgt id='9053'>0.21150E+02</wgt>
<wgt id='9054'>0.21137E+02</wgt>
<wgt id='9055'>0.21142E+02</wgt>
<wgt id='9056'>0.21164E+02</wgt>
<wgt id='9057'>0.21144E+02</wgt>
<wgt id='9058'>0.21134E+02</wgt>
<wgt id='9059'>0.21138E+02</wgt>
<wgt id='9060'>0.21140E+02</wgt>
<wgt id='9061'>0.21149E+02</wgt>
<wgt id='9062'>0.21149E+02</wgt>
<wgt id='9063'>0.21156E+02</wgt>
<wgt id='9064'>0.21141E+02</wgt>
<wgt id='9065'>0.21147E+02</wgt>
<wgt id='9066'>0.21149E+02</wgt>
<wgt id='9067'>0.21153E+02</wgt>
<wgt id='9068'>0.21152E+02</wgt>
<wgt id='9069'>0.21157E+02</wgt>
<wgt id='9070'>0.21144E+02</wgt>
<wgt id='9071'>0.21158E+02</wgt>
<wgt id='9072'>0.21158E+02</wgt>
<wgt id='9073'>0.21141E+02</wgt>
<wgt id='9074'>0.21149E+02</wgt>
<wgt id='9075'>0.21145E+02</wgt>
<wgt id='9076'>0.21145E+02</wgt>
<wgt id='9077'>0.21149E+02</wgt>
<wgt id='9078'>0.21149E+02</wgt>
<wgt id='9079'>0.21143E+02</wgt>
<wgt id='9080'>0.21158E+02</wgt>
<wgt id='9081'>0.21144E+02</wgt>
<wgt id='9082'>0.21151E+02</wgt>
<wgt id='9083'>0.21140E+02</wgt>
<wgt id='9084'>0.21141E+02</wgt>
<wgt id='9085'>0.21142E+02</wgt>
<wgt id='9086'>0.21149E+02</wgt>
<wgt id='9087'>0.21135E+02</wgt>
<wgt id='9088'>0.21142E+02</wgt>
<wgt id='9089'>0.21142E+02</wgt>
<wgt id='9090'>0.21149E+02</wgt>
<wgt id='9091'>0.21145E+02</wgt>
<wgt id='9092'>0.21146E+02</wgt>
<wgt id='9093'>0.21143E+02</wgt>
<wgt id='9094'>0.21146E+02</wgt>
<wgt id='9095'>0.21149E+02</wgt>
<wgt id='9096'>0.21142E+02</wgt>
<wgt id='9097'>0.21147E+02</wgt>
<wgt id='9098'>0.21147E+02</wgt>
<wgt id='9099'>0.21142E+02</wgt>
<wgt id='9100'>0.21146E+02</wgt>
<wgt id='9101'>0.21012E+02</wgt>
<wgt id='9102'>0.21207E+02</wgt>
<wgt id='10000'>0.22239E+02</wgt>
<wgt id='10001'>0.22332E+02</wgt>
<wgt id='10002'>0.22255E+02</wgt>
<wgt id='10003'>0.22244E+02</wgt>
<wgt id='10004'>0.22376E+02</wgt>
<wgt id='10005'>0.22939E+02</wgt>
<wgt id='10006'>0.22251E+02</wgt>
<wgt id='10007'>0.22234E+02</wgt>
<wgt id='10008'>0.22237E+02</wgt>
<wgt id='10009'>0.22209E+02</wgt>
<wgt id='10010'>0.22228E+02</wgt>
<wgt id='10011'>0.22233E+02</wgt>
<wgt id='10012'>0.22191E+02</wgt>
<wgt id='10013'>0.22224E+02</wgt>
<wgt id='10014'>0.22261E+02</wgt>
<wgt id='10015'>0.22273E+02</wgt>
<wgt id='10016'>0.22265E+02</wgt>
<wgt id='10017'>0.22036E+02</wgt>
<wgt id='10018'>0.22258E+02</wgt>
<wgt id='10019'>0.22200E+02</wgt>
<wgt id='10020'>0.22250E+02</wgt>
<wgt id='10021'>0.22243E+02</wgt>
<wgt id='10022'>0.22233E+02</wgt>
<wgt id='10023'>0.22243E+02</wgt>
<wgt id='10024'>0.22245E+02</wgt>
<wgt id='10025'>0.22229E+02</wgt>
<wgt id='10026'>0.22228E+02</wgt>
<wgt id='10027'>0.22229E+02</wgt>
<wgt id='10028'>0.22249E+02</wgt>
<wgt id='10029'>0.22267E+02</wgt>
<wgt id='10030'>0.22231E+02</wgt>
<wgt id='10031'>0.21995E+02</wgt>
<wgt id='10032'>0.22411E+02</wgt>
<wgt id='11000'>0.21146E+02</wgt>
<wgt id='11001'>0.21194E+02</wgt>
<wgt id='11002'>0.21218E+02</wgt>
<wgt id='11003'>0.21120E+02</wgt>
<wgt id='11004'>0.21227E+02</wgt>
<wgt id='11005'>0.20829E+02</wgt>
<wgt id='11006'>0.21137E+02</wgt>
<wgt id='11007'>0.21099E+02</wgt>
<wgt id='11008'>0.21088E+02</wgt>
<wgt id='11009'>0.21031E+02</wgt>
<wgt id='11010'>0.21267E+02</wgt>
<wgt id='11011'>0.21018E+02</wgt>
<wgt id='11012'>0.21170E+02</wgt>
<wgt id='11013'>0.21237E+02</wgt>
<wgt id='11014'>0.21075E+02</wgt>
<wgt id='11015'>0.21117E+02</wgt>
<wgt id='11016'>0.21121E+02</wgt>
<wgt id='11017'>0.21334E+02</wgt>
<wgt id='11018'>0.21148E+02</wgt>
<wgt id='11019'>0.21140E+02</wgt>
<wgt id='11020'>0.21173E+02</wgt>
<wgt id='11021'>0.21224E+02</wgt>
<wgt id='11022'>0.21602E+02</wgt>
<wgt id='11023'>0.21133E+02</wgt>
<wgt id='11024'>0.21128E+02</wgt>
<wgt id='11025'>0.21078E+02</wgt>
<wgt id='11026'>0.21146E+02</wgt>
<wgt id='11027'>0.21147E+02</wgt>
<wgt id='11028'>0.21139E+02</wgt>
<wgt id='11029'>0.21126E+02</wgt>
<wgt id='11030'>0.21151E+02</wgt>
<wgt id='11031'>0.21012E+02</wgt>
<wgt id='11032'>0.21207E+02</wgt>
<wgt id='12000'>0.23967E+02</wgt>
<wgt id='12001'>0.23931E+02</wgt>
<wgt id='12002'>0.24004E+02</wgt>
<wgt id='12003'>0.24041E+02</wgt>
<wgt id='12004'>0.23894E+02</wgt>
<wgt id='12005'>0.24006E+02</wgt>
<wgt id='12006'>0.23929E+02</wgt>
<wgt id='12007'>0.24030E+02</wgt>
<wgt id='12008'>0.23907E+02</wgt>
<wgt id='12009'>0.24011E+02</wgt>
<wgt id='12010'>0.23925E+02</wgt>
<wgt id='12011'>0.23939E+02</wgt>
<wgt id='12012'>0.23996E+02</wgt>
<wgt id='12013'>0.23867E+02</wgt>
<wgt id='12014'>0.24069E+02</wgt>
<wgt id='12015'>0.23969E+02</wgt>
<wgt id='12016'>0.23939E+02</wgt>
<wgt id='12017'>0.24035E+02</wgt>
<wgt id='12018'>0.23879E+02</wgt>
<wgt id='12019'>0.23875E+02</wgt>
<wgt id='12020'>0.24061E+02</wgt>
<wgt id='12021'>0.24079E+02</wgt>
<wgt id='12022'>0.23823E+02</wgt>
<wgt id='12023'>0.23880E+02</wgt>
<wgt id='12024'>0.23921E+02</wgt>
<wgt id='12025'>0.24054E+02</wgt>
<wgt id='12026'>0.23918E+02</wgt>
<wgt id='12027'>0.23895E+02</wgt>
<wgt id='12028'>0.24063E+02</wgt>
<wgt id='12050'>0.23967E+02</wgt>
<wgt id='12051'>0.23949E+02</wgt>
<wgt id='12052'>0.23980E+02</wgt>
<wgt id='12053'>0.23945E+02</wgt>
<wgt id='12054'>0.23976E+02</wgt>
<wgt id='12055'>0.24044E+02</wgt>
<wgt id='12056'>0.23743E+02</wgt>
<wgt id='12057'>0.23853E+02</wgt>
<wgt id='12058'>0.24071E+02</wgt>
<wgt id='12059'>0.23883E+02</wgt>
<wgt id='12060'>0.24058E+02</wgt>
<wgt id='12061'>0.23983E+02</wgt>
<wgt id='12062'>0.24027E+02</wgt>
<wgt id='12063'>0.23742E+02</wgt>
<wgt id='13000'>0.21459E+02</wgt>
<wgt id='13001'>0.21441E+02</wgt>
<wgt id='13002'>0.21474E+02</wgt>
<wgt id='13003'>0.21499E+02</wgt>
<wgt id='13004'>0.21417E+02</wgt>
<wgt id='13005'>0.21516E+02</wgt>
<wgt id='13006'>0.21400E+02</wgt>
<wgt id='13007'>0.21554E+02</wgt>
<wgt id='13008'>0.21365E+02</wgt>
<wgt id='13009'>0.21474E+02</wgt>
<wgt id='13010'>0.21443E+02</wgt>
<wgt id='13011'>0.21507E+02</wgt>
<wgt id='13012'>0.21409E+02</wgt>
<wgt id='13013'>0.21389E+02</wgt>
<wgt id='13014'>0.21528E+02</wgt>
<wgt id='13015'>0.21426E+02</wgt>
<wgt id='13016'>0.21484E+02</wgt>
<wgt id='13017'>0.21440E+02</wgt>
<wgt id='13018'>0.21470E+02</wgt>
<wgt id='13019'>0.21424E+02</wgt>
<wgt id='13020'>0.21489E+02</wgt>
<wgt id='13021'>0.21246E+02</wgt>
<wgt id='13022'>0.21635E+02</wgt>
<wgt id='13023'>0.21470E+02</wgt>
<wgt id='13024'>0.21441E+02</wgt>
<wgt id='13025'>0.21416E+02</wgt>
<wgt id='13026'>0.21439E+02</wgt>
<wgt id='13027'>0.21471E+02</wgt>
<wgt id='13028'>0.21472E+02</wgt>
<wgt id='13050'>0.21459E+02</wgt>
<wgt id='13051'>0.21466E+02</wgt>
<wgt id='13052'>0.21412E+02</wgt>
<wgt id='13053'>0.21460E+02</wgt>
<wgt id='13054'>0.21448E+02</wgt>
<wgt id='13055'>0.21427E+02</wgt>
<wgt id='13056'>0.21499E+02</wgt>
<wgt id='13057'>0.21369E+02</wgt>
<wgt id='13058'>0.21588E+02</wgt>
<wgt id='13059'>0.21373E+02</wgt>
<wgt id='13060'>0.21555E+02</wgt>
<wgt id='13061'>0.21393E+02</wgt>
<wgt id='13062'>0.21647E+02</wgt>
<wgt id='13063'>0.21303E+02</wgt>
<wgt id='14000'>0.22115E+02</wgt>
<wgt id='14001'>0.22112E+02</wgt>
<wgt id='14002'>0.22109E+02</wgt>
<wgt id='14003'>0.22105E+02</wgt>
<wgt id='14004'>0.22102E+02</wgt>
<wgt id='14005'>0.22098E+02</wgt>
<wgt id='14006'>0.22095E+02</wgt>
<wgt id='14007'>0.22092E+02</wgt>
<wgt id='14008'>0.22088E+02</wgt>
<wgt id='14009'>0.22085E+02</wgt>
<wgt id='14010'>0.22082E+02</wgt>
<wgt id='14011'>0.22078E+02</wgt>
<wgt id='14012'>0.22075E+02</wgt>
<wgt id='14013'>0.22072E+02</wgt>
<wgt id='14014'>0.22068E+02</wgt>
<wgt id='14015'>0.22065E+02</wgt>
<wgt id='14016'>0.22062E+02</wgt>
<wgt id='14017'>0.22058E+02</wgt>
<wgt id='14018'>0.22055E+02</wgt>
<wgt id='14019'>0.22051E+02</wgt>
<wgt id='14020'>0.22048E+02</wgt>
<wgt id='14021'>0.22045E+02</wgt>
<wgt id='14022'>0.22041E+02</wgt>
<wgt id='14023'>0.22038E+02</wgt>
<wgt id='14024'>0.22035E+02</wgt>
<wgt id='14025'>0.22031E+02</wgt>
<wgt id='14026'>0.22028E+02</wgt>
<wgt id='14027'>0.22025E+02</wgt>
<wgt id='14028'>0.22021E+02</wgt>
<wgt id='14029'>0.22018E+02</wgt>
<wgt id='14030'>0.22015E+02</wgt>
<wgt id='15000'>0.20882E+02</wgt>
<wgt id='15001'>0.20916E+02</wgt>
<wgt id='15002'>0.21002E+02</wgt>
<wgt id='15003'>0.20680E+02</wgt>
<wgt id='15004'>0.20832E+02</wgt>
<wgt id='15005'>0.20978E+02</wgt>
<wgt id='15006'>0.20831E+02</wgt>
<wgt id='15007'>0.20938E+02</wgt>
<wgt id='15008'>0.20947E+02</wgt>
<wgt id='15009'>0.20861E+02</wgt>
<wgt id='15010'>0.20851E+02</wgt>
<wgt id='15011'>0.21130E+02</wgt>
<wgt id='15012'>0.20556E+02</wgt>
<wgt id='15013'>0.20573E+02</wgt>
<wgt id='15014'>0.20615E+02</wgt>
<wgt id='15015'>0.20861E+02</wgt>
<wgt id='15016'>0.20971E+02</wgt>
<wgt id='15017'>0.20895E+02</wgt>
<wgt id='15018'>0.20872E+02</wgt>
<wgt id='15019'>0.20857E+02</wgt>
<wgt id='15020'>0.20965E+02</wgt>
<wgt id='15021'>0.20858E+02</wgt>
<wgt id='15022'>0.20906E+02</wgt>
<wgt id='15023'>0.20848E+02</wgt>
<wgt id='15024'>0.20854E+02</wgt>
<wgt id='15025'>0.20908E+02</wgt>
<wgt id='15026'>0.20885E+02</wgt>
<wgt id='15027'>0.20853E+02</wgt>
<wgt id='15028'>0.20900E+02</wgt>
<wgt id='15029'>0.20906E+02</wgt>
<wgt id='15030'>0.20883E+02</wgt>
<wgt id='15031'>0.20877E+02</wgt>
<wgt id='15032'>0.20901E+02</wgt>
<wgt id='15033'>0.20910E+02</wgt>
<wgt id='15034'>0.20870E+02</wgt>
<wgt id='15035'>0.20916E+02</wgt>
<wgt id='15036'>0.20881E+02</wgt>
<wgt id='15037'>0.20902E+02</wgt>
<wgt id='15038'>0.20884E+02</wgt>
<wgt id='15039'>0.20886E+02</wgt>
<wgt id='15040'>0.20860E+02</wgt>
<wgt id='15041'>0.20872E+02</wgt>
<wgt id='15042'>0.20877E+02</wgt>
<wgt id='15043'>0.20868E+02</wgt>
<wgt id='15044'>0.20889E+02</wgt>
<wgt id='15045'>0.20878E+02</wgt>
<wgt id='15046'>0.20856E+02</wgt>
<wgt id='15047'>0.20872E+02</wgt>
<wgt id='15048'>0.20888E+02</wgt>
<wgt id='15049'>0.20871E+02</wgt>
<wgt id='15050'>0.20886E+02</wgt>
<wgt id='15051'>0.20890E+02</wgt>
<wgt id='15052'>0.20886E+02</wgt>
<wgt id='15053'>0.20886E+02</wgt>
<wgt id='15054'>0.20873E+02</wgt>
<wgt id='15055'>0.20878E+02</wgt>
<wgt id='15056'>0.20900E+02</wgt>
<wgt id='15057'>0.20879E+02</wgt>
<wgt id='15058'>0.20869E+02</wgt>
<wgt id='15059'>0.20874E+02</wgt>
<wgt id='15060'>0.20876E+02</wgt>
<wgt id='15061'>0.20885E+02</wgt>
<wgt id='15062'>0.20885E+02</wgt>
<wgt id='15063'>0.20892E+02</wgt>
<wgt id='15064'>0.20876E+02</wgt>
<wgt id='15065'>0.20882E+02</wgt>
<wgt id='15066'>0.20884E+02</wgt>
<wgt id='15067'>0.20889E+02</wgt>
<wgt id='15068'>0.20888E+02</wgt>
<wgt id='15069'>0.20893E+02</wgt>
<wgt id='15070'>0.20880E+02</wgt>
<wgt id='15071'>0.20894E+02</wgt>
<wgt id='15072'>0.20894E+02</wgt>
<wgt id='15073'>0.20876E+02</wgt>
<wgt id='15074'>0.20885E+02</wgt>
<wgt id='15075'>0.20880E+02</wgt>
<wgt id='15076'>0.20880E+02</wgt>
<wgt id='15077'>0.20885E+02</wgt>
<wgt id='15078'>0.20885E+02</wgt>
<wgt id='15079'>0.20879E+02</wgt>
<wgt id='15080'>0.20894E+02</wgt>
<wgt id='15081'>0.20880E+02</wgt>
<wgt id='15082'>0.20886E+02</wgt>
<wgt id='15083'>0.20875E+02</wgt>
<wgt id='15084'>0.20877E+02</wgt>
<wgt id='15085'>0.20878E+02</wgt>
<wgt id='15086'>0.20884E+02</wgt>
<wgt id='15087'>0.20871E+02</wgt>
<wgt id='15088'>0.20878E+02</wgt>
<wgt id='15089'>0.20878E+02</wgt>
<wgt id='15090'>0.20885E+02</wgt>
<wgt id='15091'>0.20881E+02</wgt>
<wgt id='15092'>0.20882E+02</wgt>
<wgt id='15093'>0.20879E+02</wgt>
<wgt id='15094'>0.20881E+02</wgt>
<wgt id='15095'>0.20885E+02</wgt>
<wgt id='15096'>0.20878E+02</wgt>
<wgt id='15097'>0.20883E+02</wgt>
<wgt id='15098'>0.20882E+02</wgt>
<wgt id='15099'>0.20877E+02</wgt>
<wgt id='15100'>0.20881E+02</wgt>
<wgt id='15101'>0.20882E+02</wgt>
<wgt id='15102'>0.20880E+02</wgt>
<wgt id='15103'>0.20882E+02</wgt>
<wgt id='15104'>0.20882E+02</wgt>
<wgt id='15105'>0.20883E+02</wgt>
<wgt id='15106'>0.20882E+02</wgt>
<wgt id='15107'>0.20881E+02</wgt>
<wgt id='1500'>0.21939E+02</wgt>
<wgt id='1501'>0.19742E+02</wgt>
<wgt id='1502'>0.22090E+02</wgt>
<wgt id='1503'>0.21745E+02</wgt>
<wgt id='1504'>0.21644E+02</wgt>
<wgt id='1505'>0.18977E+02</wgt>
<wgt id='1506'>0.21961E+02</wgt>
<wgt id='1507'>0.22356E+02</wgt>
<wgt id='1508'>0.21899E+02</wgt>
<wgt id='1509'>0.21877E+02</wgt>
<wgt id='1510'>0.21298E+02</wgt>
<wgt id='1511'>0.21845E+02</wgt>
<wgt id='1512'>0.22351E+02</wgt>
<wgt id='1513'>0.22338E+02</wgt>
<wgt id='1514'>0.21362E+02</wgt>
<wgt id='1515'>0.21995E+02</wgt>
<wgt id='1516'>0.22342E+02</wgt>
<wgt id='1517'>0.21522E+02</wgt>
<wgt id='1518'>0.21629E+02</wgt>
<wgt id='1519'>0.22153E+02</wgt>
<wgt id='1520'>0.22136E+02</wgt>
<wgt id='1521'>0.22039E+02</wgt>
<wgt id='1522'>0.21873E+02</wgt>
<wgt id='1523'>0.23764E+02</wgt>
<wgt id='1524'>0.21725E+02</wgt>
<wgt id='1525'>0.22325E+02</wgt>
<wgt id='1526'>0.21398E+02</wgt>
<wgt id='1527'>0.21696E+02</wgt>
<wgt id='1528'>0.21780E+02</wgt>
<wgt id='1529'>0.21598E+02</wgt>
<wgt id='1530'>0.22355E+02</wgt>
<wgt id='1531'>0.21856E+02</wgt>
<wgt id='1532'>0.21331E+02</wgt>
<wgt id='1533'>0.22516E+02</wgt>
<wgt id='1534'>0.22132E+02</wgt>
<wgt id='1535'>0.22701E+02</wgt>
<wgt id='1536'>0.22613E+02</wgt>
<wgt id='1537'>0.22211E+02</wgt>
<wgt id='1538'>0.21886E+02</wgt>
<wgt id='1539'>0.21057E+02</wgt>
<wgt id='1540'>0.22380E+02</wgt>
<wgt id='1541'>0.21767E+02</wgt>
<wgt id='1542'>0.22342E+02</wgt>
<wgt id='1543'>0.22282E+02</wgt>
<wgt id='1544'>0.21748E+02</wgt>
<wgt id='1545'>0.22359E+02</wgt>
<wgt id='1546'>0.22086E+02</wgt>
<wgt id='1547'>0.21524E+02</wgt>
<wgt id='1548'>0.21438E+02</wgt>
<wgt id='1549'>0.22141E+02</wgt>
<wgt id='1550'>0.22043E+02</wgt>
<wgt id='1551'>0.21978E+02</wgt>
<wgt id='1552'>0.21911E+02</wgt>
<wgt id='1553'>0.22334E+02</wgt>
<wgt id='1554'>0.21942E+02</wgt>
<wgt id='1555'>0.21985E+02</wgt>
<wgt id='1556'>0.21268E+02</wgt>
<wgt id='1557'>0.22824E+02</wgt>
<wgt id='1558'>0.21788E+02</wgt>
<wgt id='1559'>0.22203E+02</wgt>
<wgt id='1560'>0.21841E+02</wgt>
<wgt id='1561'>0.22160E+02</wgt>
<wgt id='1562'>0.21958E+02</wgt>
<wgt id='1563'>0.22416E+02</wgt>
<wgt id='1564'>0.21654E+02</wgt>
<wgt id='1565'>0.22215E+02</wgt>
<wgt id='1566'>0.22093E+02</wgt>
<wgt id='1567'>0.23055E+02</wgt>
<wgt id='1568'>0.21556E+02</wgt>
<wgt id='1569'>0.21451E+02</wgt>
<wgt id='1570'>0.22085E+02</wgt>
<wgt id='1571'>0.22552E+02</wgt>
<wgt id='1572'>0.21757E+02</wgt>
<wgt id='1573'>0.20295E+02</wgt>
<wgt id='1574'>0.22149E+02</wgt>
<wgt id='1575'>0.21691E+02</wgt>
<wgt id='1576'>0.21423E+02</wgt>
<wgt id='1577'>0.22238E+02</wgt>
<wgt id='1578'>0.22903E+02</wgt>
<wgt id='1579'>0.21811E+02</wgt>
<wgt id='1580'>0.22169E+02</wgt>
<wgt id='1581'>0.22115E+02</wgt>
<wgt id='1582'>0.21757E+02</wgt>
<wgt id='1583'>0.21887E+02</wgt>
<wgt id='1584'>0.22027E+02</wgt>
<wgt id='1585'>0.21254E+02</wgt>
<wgt id='1586'>0.21911E+02</wgt>
<wgt id='1587'>0.21894E+02</wgt>
<wgt id='1588'>0.21982E+02</wgt>
<wgt id='1589'>0.22320E+02</wgt>
<wgt id='1590'>0.21899E+02</wgt>
<wgt id='1591'>0.21216E+02</wgt>
<wgt id='1592'>0.22547E+02</wgt>
<wgt id='1593'>0.21693E+02</wgt>
<wgt id='1594'>0.22556E+02</wgt>
<wgt id='1595'>0.21597E+02</wgt>
<wgt id='1596'>0.22283E+02</wgt>
<wgt id='1597'>0.22027E+02</wgt>
<wgt id='1598'>0.22966E+02</wgt>
<wgt id='1599'>0.22546E+02</wgt>
<wgt id='1600'>0.21838E+02</wgt>
<wgt id='1601'>0.21685E+02</wgt>
<wgt id='1602'>0.21972E+02</wgt>
<wgt id='1700'>0.21282E+02</wgt>
<wgt id='1800'>0.27057E+02</wgt>
<wgt id='1850'>0.30793E+02</wgt>
<wgt id='1900'>0.26335E+02</wgt>
<wgt id='1950'>0.29757E+02</wgt>
</rwgt>
</event>
<event>
      4   9999  2.16956E+01  3.90041E+01 -1.00000E+00  1.43320E-01
       2    -1     0     0   502     0  0.000000000E+00  0.000000000E+00  2.572763044E+02  2.572763044E+02  0.000000000E+00  0.00000E+00  9.000E+00
      21    -1     0     0   501   502  0.000000000E+00  0.000000000E+00 -3.890051772E+01  3.890051772E+01  0.000000000E+00  0.00000E+00  9.000E+00
      25     1     1     2     0     0 -3.524812622E+01 -1.669987973E+01  8.239077903E+01  1.547086678E+02  1.250008601E+02  0.00000E+00  9.000E+00
       2     1     1     2   501     0  3.524812622E+01  1.669987973E+01  1.359850077E+02  1.414681544E+02  1.907348633E-06  0.00000E+00  9.000E+00
#rwgt            1           1   20.487939988533988                1        1954           0
<rwgt>
<wgt id='1001'>0.21696E+02</wgt>
<wgt id='1002'>0.18598E+02</wgt>
<wgt id='1003'>0.24722E+02</wgt>
<wgt id='1004'>0.19394E+02</wgt>
<wgt id='1005'>0.17193E+02</wgt>
<wgt id='1006'>0.21486E+02</wgt>
<wgt id='1007'>0.24171E+02</wgt>
<wgt id='1008'>0.19691E+02</wgt>
<wgt id='1009'>0.28653E+02</wgt>
<wgt id='2000'>0.21696E+02</wgt>
<wgt id='2001'>0.21666E+02</wgt>
<wgt id='2002'>0.21787E+02</wgt>
<wgt id='2003'>0.21781E+02</wgt>
<wgt id='2004'>0.21720E+02</wgt>
<wgt id='2005'>0.21637E+02</wgt>
<wgt id='2006'>0.21630E+02</wgt>
<wgt id='2007'>0.21593E+02</wgt>
<wgt id='2008'>0.21649E+02</wgt>
<wgt id='2009'>0.21718E+02</wgt>
<wgt id='2010'>0.21682E+02</wgt>
<wgt id='2011'>0.21802E+02</wgt>
<wgt id='2012'>0.21823E+02</wgt>
<wgt id='2013'>0.21898E+02</wgt>
<wgt id='2014'>0.21793E+02</wgt>
<wgt id='2015'>0.21755E+02</wgt>
<wgt id='2016'>0.21650E+02</wgt>
<wgt id='2017'>0.21694E+02</wgt>
<wgt id='2018'>0.21792E+02</wgt>
<wgt id='2019'>0.21685E+02</wgt>
<wgt id='2020'>0.21787E+02</wgt>
<wgt id='2021'>0.21649E+02</wgt>
<wgt id='2022'>0.21744E+02</wgt>
<wgt id='2023'>0.21727E+02</wgt>
<wgt id='2024'>0.21713E+02</wgt>
<wgt id='2025'>0.21739E+02</wgt>
<wgt id='2026'>0.21716E+02</wgt>
<wgt id='2027'>0.21682E+02</wgt>
<wgt id='2028'>0.21680E+02</wgt>
<wgt id='2029'>0.21699E+02</wgt>
<wgt id='2030'>0.21705E+02</wgt>
<wgt id='2031'>0.21705E+02</wgt>
<wgt id='2032'>0.21692E+02</wgt>
<wgt id='2033'>0.21699E+02</wgt>
<wgt id='2034'>0.21701E+02</wgt>
<wgt id='2035'>0.21692E+02</wgt>
<wgt id='2036'>0.21699E+02</wgt>
<wgt id='2037'>0.21700E+02</wgt>
<wgt id='2038'>0.21694E+02</wgt>
<wgt id='2039'>0.21693E+02</wgt>
<wgt id='2040'>0.21696E+02</wgt>
<wgt id='2041'>0.21697E+02</wgt>
<wgt id='2042'>0.21688E+02</wgt>
<wgt id='2043'>0.21694E+02</wgt>
<wgt id='2044'>0.21700E+02</wgt>
<wgt id='2045'>0.21694E+02</wgt>
<wgt id='2046'>0.21699E+02</wgt>
<wgt id='2047'>0.21698E+02</wgt>
<wgt id='2048'>0.21694E+02</wgt>
<wgt id='2049'>0.21696E+02</wgt>
<wgt id='2050'>0.21698E+02</wgt>
<wgt id='2051'>0.21709E+02</wgt>
<wgt id='2052'>0.21702E+02</wgt>
<wgt id='2053'>0.21702E+02</wgt>
<wgt id='2054'>0.21699E+02</wgt>
<wgt id='2055'>0.21691E+02</wgt>
<wgt id='2056'>0.21698E+02</wgt>
<wgt id='2057'>0.21708E+02</wgt>
<wgt id='2058'>0.21699E+02</wgt>
<wgt id='2059'>0.21690E+02</wgt>
<wgt id='2060'>0.21694E+02</wgt>
<wgt id='2061'>0.21690E+02</wgt>
<wgt id='2062'>0.21697E+02</wgt>
<wgt id='2063'>0.21696E+02</wgt>
<wgt id='2064'>0.21689E+02</wgt>
<wgt id='2065'>0.21698E+02</wgt>
<wgt id='2066'>0.21689E+02</wgt>
<wgt id='2067'>0.21696E+02</wgt>
<wgt id='2068'>0.21699E+02</wgt>
<wgt id='2069'>0.21691E+02</wgt>
<wgt id='2070'>0.21698E+02</wgt>
<wgt id='2071'>0.21689E+02</wgt>
<wgt id='2072'>0.21698E+02</wgt>
<wgt id='2073'>0.21699E+02</wgt>
<wgt id='2074'>0.21694E+02</wgt>
<wgt id='2075'>0.21695E+02</wgt>
<wgt id='2076'>0.21695E+02</wgt>
<wgt id='2077'>0.21696E+02</wgt>
<wgt id='2078'>0.21696E+02</wgt>
<wgt id='2079'>0.21698E+02</wgt>
<wgt id='2080'>0.21694E+02</wgt>
<wgt id='2081'>0.21696E+02</wgt>
<wgt id='2082'>0.21693E+02</wgt>
<wgt id='2083'>0.21695E+02</wgt>
<wgt id='2084'>0.21696E+02</wgt>
<wgt id='2085'>0.21695E+02</wgt>
<wgt id='2086'>0.21692E+02</wgt>
<wgt id='2087'>0.21695E+02</wgt>
<wgt id='2088'>0.21696E+02</wgt>
<wgt id='2089'>0.21696E+02</wgt>
<wgt id='2090'>0.21695E+02</wgt>
<wgt id='2091'>0.21693E+02</wgt>
<wgt id='2092'>0.21695E+02</wgt>
<wgt id='2093'>0.21694E+02</wgt>
<wgt id='2094'>0.21697E+02</wgt>
<wgt id='2095'>0.21697E+02</wgt>
<wgt id='2096'>0.21697E+02</wgt>
<wgt id='2097'>0.21695E+02</wgt>
<wgt id='2098'>0.21696E+02</wgt>
<wgt id='2099'>0.21695E+02</wgt>
<wgt id='2100'>0.21696E+02</wgt>
<wgt id='2101'>0.21215E+02</wgt>
<wgt id='2102'>0.22075E+02</wgt>
<wgt id='2104'>0.19590E+02</wgt>
<wgt id='2105'>0.19932E+02</wgt>
<wgt id='2106'>0.20383E+02</wgt>
<wgt id='2107'>0.20872E+02</wgt>
<wgt id='2108'>0.21527E+02</wgt>
<wgt id='2109'>0.21953E+02</wgt>
<wgt id='2110'>0.22445E+02</wgt>
<wgt id='2111'>0.22858E+02</wgt>
<wgt id='3000'>0.22529E+02</wgt>
<wgt id='3001'>0.22610E+02</wgt>
<wgt id='3002'>0.22441E+02</wgt>
<wgt id='3003'>0.22620E+02</wgt>
<wgt id='3004'>0.22579E+02</wgt>
<wgt id='3005'>0.22646E+02</wgt>
<wgt id='3006'>0.22561E+02</wgt>
<wgt id='3007'>0.22585E+02</wgt>
<wgt id='3008'>0.22458E+02</wgt>
<wgt id='3009'>0.22504E+02</wgt>
<wgt id='3010'>0.22439E+02</wgt>
<wgt id='3011'>0.22582E+02</wgt>
<wgt id='3012'>0.22705E+02</wgt>
<wgt id='3013'>0.22342E+02</wgt>
<wgt id='3014'>0.22629E+02</wgt>
<wgt id='3015'>0.22610E+02</wgt>
<wgt id='3016'>0.22542E+02</wgt>
<wgt id='3017'>0.22639E+02</wgt>
<wgt id='3018'>0.22570E+02</wgt>
<wgt id='3019'>0.22431E+02</wgt>
<wgt id='3020'>0.22489E+02</wgt>
<wgt id='3021'>0.22446E+02</wgt>
<wgt id='3022'>0.22523E+02</wgt>
<wgt id='3023'>0.22490E+02</wgt>
<wgt id='3024'>0.22504E+02</wgt>
<wgt id='3025'>0.22530E+02</wgt>
<wgt id='3026'>0.22553E+02</wgt>
<wgt id='3027'>0.22537E+02</wgt>
<wgt id='3028'>0.22491E+02</wgt>
<wgt id='3029'>0.22536E+02</wgt>
<wgt id='3030'>0.22537E+02</wgt>
<wgt id='3031'>0.22531E+02</wgt>
<wgt id='3032'>0.22540E+02</wgt>
<wgt id='3033'>0.22541E+02</wgt>
<wgt id='3034'>0.22541E+02</wgt>
<wgt id='3035'>0.22540E+02</wgt>
<wgt id='3036'>0.22532E+02</wgt>
<wgt id='3037'>0.22527E+02</wgt>
<wgt id='3038'>0.22529E+02</wgt>
<wgt id='3039'>0.22522E+02</wgt>
<wgt id='3040'>0.22526E+02</wgt>
<wgt id='3041'>0.22536E+02</wgt>
<wgt id='3042'>0.22525E+02</wgt>
<wgt id='3043'>0.22522E+02</wgt>
<wgt id='3044'>0.22531E+02</wgt>
<wgt id='3045'>0.22535E+02</wgt>
<wgt id='3046'>0.22534E+02</wgt>
<wgt id='3047'>0.22527E+02</wgt>
<wgt id='3048'>0.22531E+02</wgt>
<wgt id='3049'>0.22527E+02</wgt>
<wgt id='3050'>0.22528E+02</wgt>
<wgt id='3051'>0.22533E+02</wgt>
<wgt id='3052'>0.22525E+02</wgt>
<wgt id='3053'>0.22530E+02</wgt>
<wgt id='3054'>0.22528E+02</wgt>
<wgt id='3055'>0.22514E+02</wgt>
<wgt id='3056'>0.22534E+02</wgt>
<wgt id='3057'>0.22530E+02</wgt>
<wgt id='3058'>0.22518E+02</wgt>
<wgt id='3059'>0.22533E+02</wgt>
<wgt id='3060'>0.22530E+02</wgt>
<wgt id='3061'>0.22538E+02</wgt>
<wgt id='3062'>0.22535E+02</wgt>
<wgt id='3063'>0.22539E+02</wgt>
<wgt id='3064'>0.22527E+02</wgt>
<wgt id='3065'>0.22531E+02</wgt>
<wgt id='3066'>0.22531E+02</wgt>
<wgt id='3067'>0.22524E+02</wgt>
<wgt id='3068'>0.22529E+02</wgt>
<wgt id='3069'>0.22528E+02</wgt>
<wgt id='3070'>0.22529E+02</wgt>
<wgt id='3071'>0.22527E+02</wgt>
<wgt id='3072'>0.22534E+02</wgt>
<wgt id='3073'>0.22523E+02</wgt>
<wgt id='3074'>0.22530E+02</wgt>
<wgt id='3075'>0.22530E+02</wgt>
<wgt id='3076'>0.22525E+02</wgt>
<wgt id='3077'>0.22528E+02</wgt>
<wgt id='3078'>0.22530E+02</wgt>
<wgt id='3079'>0.22534E+02</wgt>
<wgt id='3080'>0.22529E+02</wgt>
<wgt id='3081'>0.22530E+02</wgt>
<wgt id='3082'>0.22530E+02</wgt>
<wgt id='3083'>0.22530E+02</wgt>
<wgt id='3084'>0.22528E+02</wgt>
<wgt id='3085'>0.22528E+02</wgt>
<wgt id='3086'>0.22529E+02</wgt>
<wgt id='3087'>0.22530E+02</wgt>
<wgt id='3088'>0.22531E+02</wgt>
<wgt id='3089'>0.22530E+02</wgt>
<wgt id='3090'>0.22531E+02</wgt>
<wgt id='3091'>0.22530E+02</wgt>
<wgt id='3092'>0.22530E+02</wgt>
<wgt id='3093'>0.22530E+02</wgt>
<wgt id='3094'>0.22531E+02</wgt>
<wgt id='3095'>0.22528E+02</wgt>
<wgt id='3096'>0.22527E+02</wgt>
<wgt id='3097'>0.22528E+02</wgt>
<wgt id='3098'>0.22528E+02</wgt>
<wgt id='3099'>0.22528E+02</wgt>
<wgt id='3100'>0.22530E+02</wgt>
<wgt id='3101'>0.22066E+02</wgt>
<wgt id='3102'>0.23072E+02</wgt>
<wgt id='5000'>0.20877E+02</wgt>
<wgt id='5001'>0.20755E+02</wgt>
<wgt id='5002'>0.20813E+02</wgt>
<wgt id='5003'>0.20711E+02</wgt>
<wgt id='5004'>0.20900E+02</wgt>
<wgt id='5005'>0.20278E+02</wgt>
<wgt id='5006'>0.21180E+02</wgt>
<wgt id='5007'>0.20969E+02</wgt>
<wgt id='5008'>0.20541E+02</wgt>
<wgt id='5009'>0.21173E+02</wgt>
<wgt id='5010'>0.20707E+02</wgt>
<wgt id='5011'>0.20798E+02</wgt>
<wgt id='5012'>0.20876E+02</wgt>
<wgt id='5013'>0.20358E+02</wgt>
<wgt id='5014'>0.20943E+02</wgt>
<wgt id='5015'>0.21084E+02</wgt>
<wgt id='5016'>0.20239E+02</wgt>
<wgt id='5017'>0.20914E+02</wgt>
<wgt id='5018'>0.20836E+02</wgt>
<wgt id='5019'>0.20854E+02</wgt>
<wgt id='5020'>0.20888E+02</wgt>
<wgt id='5021'>0.20965E+02</wgt>
<wgt id='5022'>0.20820E+02</wgt>
<wgt id='5023'>0.20834E+02</wgt>
<wgt id='5024'>0.20916E+02</wgt>
<wgt id='5025'>0.20851E+02</wgt>
<wgt id='5026'>0.20897E+02</wgt>
<wgt id='5027'>0.21139E+02</wgt>
<wgt id='5028'>0.20435E+02</wgt>
<wgt id='5029'>0.20386E+02</wgt>
<wgt id='5030'>0.21172E+02</wgt>
<wgt id='5031'>0.20585E+02</wgt>
<wgt id='5032'>0.21297E+02</wgt>
<wgt id='5033'>0.20729E+02</wgt>
<wgt id='5034'>0.20998E+02</wgt>
<wgt id='5035'>0.20548E+02</wgt>
<wgt id='5036'>0.21138E+02</wgt>
<wgt id='5037'>0.20849E+02</wgt>
<wgt id='5038'>0.20892E+02</wgt>
<wgt id='5039'>0.21258E+02</wgt>
<wgt id='5040'>0.20685E+02</wgt>
<wgt id='5041'>0.20582E+02</wgt>
<wgt id='5042'>0.20935E+02</wgt>
<wgt id='5043'>0.21161E+02</wgt>
<wgt id='5044'>0.20174E+02</wgt>
<wgt id='5045'>0.21675E+02</wgt>
<wgt id='5046'>0.20595E+02</wgt>
<wgt id='5047'>0.21103E+02</wgt>
<wgt id='5048'>0.20953E+02</wgt>
<wgt id='5049'>0.20904E+02</wgt>
<wgt id='5050'>0.20932E+02</wgt>
<wgt id='5051'>0.20954E+02</wgt>
<wgt id='5052'>0.20873E+02</wgt>
<wgt id='5053'>0.20811E+02</wgt>
<wgt id='5054'>0.21457E+02</wgt>
<wgt id='5055'>0.20734E+02</wgt>
<wgt id='5056'>0.21005E+02</wgt>
<wgt id='5060'>0.20475E+02</wgt>
<wgt id='5070'>0.21191E+02</wgt>
<wgt id='4000'>0.21939E+02</wgt>
<wgt id='4001'>0.21984E+02</wgt>
<wgt id='4002'>0.22029E+02</wgt>
<wgt id='4003'>0.22520E+02</wgt>
<wgt id='4004'>0.21628E+02</wgt>
<wgt id='4005'>0.22051E+02</wgt>
<wgt id='4006'>0.21866E+02</wgt>
<wgt id='4007'>0.22265E+02</wgt>
<wgt id='4008'>0.21788E+02</wgt>
<wgt id='4009'>0.21364E+02</wgt>
<wgt id='4010'>0.22353E+02</wgt>
<wgt id='4011'>0.22340E+02</wgt>
<wgt id='4012'>0.21716E+02</wgt>
<wgt id='4013'>0.20946E+02</wgt>
<wgt id='4014'>0.22495E+02</wgt>
<wgt id='4015'>0.22129E+02</wgt>
<wgt id='4016'>0.21817E+02</wgt>
<wgt id='4017'>0.21718E+02</wgt>
<wgt id='4018'>0.22203E+02</wgt>
<wgt id='4019'>0.22308E+02</wgt>
<wgt id='4020'>0.21528E+02</wgt>
<wgt id='4021'>0.22014E+02</wgt>
<wgt id='4022'>0.21778E+02</wgt>
<wgt id='4023'>0.21795E+02</wgt>
<wgt id='4024'>0.22067E+02</wgt>
<wgt id='4025'>0.21616E+02</wgt>
<wgt id='4026'>0.22231E+02</wgt>
<wgt id='4027'>0.21843E+02</wgt>
<wgt id='4028'>0.22068E+02</wgt>
<wgt id='4029'>0.21729E+02</wgt>
<wgt id='4030'>0.22011E+02</wgt>
<wgt id='4031'>0.21991E+02</wgt>
<wgt id='4032'>0.21871E+02</wgt>
<wgt id='4033'>0.21901E+02</wgt>
<wgt id='4034'>0.22016E+02</wgt>
<wgt id='4035'>0.22318E+02</wgt>
<wgt id='4036'>0.21579E+02</wgt>
<wgt id='4037'>0.22181E+02</wgt>
<wgt id='4038'>0.21529E+02</wgt>
<wgt id='4039'>0.21934E+02</wgt>
<wgt id='4040'>0.21876E+02</wgt>
<wgt id='4041'>0.22144E+02</wgt>
<wgt id='4042'>0.21763E+02</wgt>
<wgt id='4043'>0.22185E+02</wgt>
<wgt id='4044'>0.21695E+02</wgt>
<wgt id='4045'>0.21556E+02</wgt>
<wgt id='4046'>0.21829E+02</wgt>
<wgt id='4047'>0.21585E+02</wgt>
<wgt id='4048'>0.22113E+02</wgt>
<wgt id='4049'>0.21962E+02</wgt>
<wgt id='4050'>0.21402E+02</wgt>
<wgt id='4051'>0.21861E+02</wgt>
<wgt id='4052'>0.21853E+02</wgt>
<wgt id='4053'>0.21398E+02</wgt>
<wgt id='4054'>0.22108E+02</wgt>
<wgt id='4055'>0.21742E+02</wgt>
<wgt id='4056'>0.22128E+02</wgt>
<wgt id='4060'>0.21427E+02</wgt>
<wgt id='4070'>0.22385E+02</wgt>
<wgt id='4080'>0.20779E+02</wgt>
<wgt id='6000'>0.22420E+02</wgt>
<wgt id='6001'>0.22425E+02</wgt>
<wgt id='6002'>0.22416E+02</wgt>
<wgt id='6003'>0.22427E+02</wgt>
<wgt id='6004'>0.22416E+02</wgt>
<wgt id='6005'>0.22481E+02</wgt>
<wgt id='6006'>0.22364E+02</wgt>
<wgt id='6007'>0.22310E+02</wgt>
<wgt id='6008'>0.22545E+02</wgt>
<wgt id='6009'>0.22492E+02</wgt>
<wgt id='6010'>0.22351E+02</wgt>
<wgt id='6011'>0.22473E+02</wgt>
<wgt id='6012'>0.22305E+02</wgt>
<wgt id='6013'>0.22393E+02</wgt>
<wgt id='6014'>0.22467E+02</wgt>
<wgt id='6015'>0.22336E+02</wgt>
<wgt id='6016'>0.22468E+02</wgt>
<wgt id='6017'>0.22286E+02</wgt>
<wgt id='6018'>0.22580E+02</wgt>
<wgt id='6019'>0.22467E+02</wgt>
<wgt id='6020'>0.22380E+02</wgt>
<wgt id='6021'>0.22365E+02</wgt>
<wgt id='6022'>0.22493E+02</wgt>
<wgt id='6023'>0.22249E+02</wgt>
<wgt id='6024'>0.22539E+02</wgt>
<wgt id='6025'>0.22111E+02</wgt>
<wgt id='6026'>0.22698E+02</wgt>
<wgt id='6027'>0.22488E+02</wgt>
<wgt id='6028'>0.22424E+02</wgt>
<wgt id='6029'>0.22581E+02</wgt>
<wgt id='6030'>0.22233E+02</wgt>
<wgt id='6031'>0.22461E+02</wgt>
<wgt id='6032'>0.22365E+02</wgt>
<wgt id='6033'>0.22466E+02</wgt>
<wgt id='6034'>0.22371E+02</wgt>
<wgt id='6035'>0.22402E+02</wgt>
<wgt id='6036'>0.22512E+02</wgt>
<wgt id='6037'>0.22468E+02</wgt>
<wgt id='6038'>0.22413E+02</wgt>
<wgt id='6039'>0.22400E+02</wgt>
<wgt id='6040'>0.22441E+02</wgt>
<wgt id='6041'>0.22383E+02</wgt>
<wgt id='6042'>0.22467E+02</wgt>
<wgt id='6043'>0.22720E+02</wgt>
<wgt id='6044'>0.22264E+02</wgt>
<wgt id='6045'>0.22406E+02</wgt>
<wgt id='6046'>0.22457E+02</wgt>
<wgt id='6047'>0.22411E+02</wgt>
<wgt id='6048'>0.22198E+02</wgt>
<wgt id='6049'>0.22420E+02</wgt>
<wgt id='6050'>0.22403E+02</wgt>
<wgt id='7000'>0.21027E+02</wgt>
<wgt id='7001'>0.21013E+02</wgt>
<wgt id='7002'>0.21044E+02</wgt>
<wgt id='7003'>0.21092E+02</wgt>
<wgt id='7004'>0.20961E+02</wgt>
<wgt id='7005'>0.21063E+02</wgt>
<wgt id='7006'>0.21012E+02</wgt>
<wgt id='7007'>0.20926E+02</wgt>
<wgt id='7008'>0.21126E+02</wgt>
<wgt id='7009'>0.21061E+02</wgt>
<wgt id='7010'>0.20993E+02</wgt>
<wgt id='7011'>0.20811E+02</wgt>
<wgt id='7012'>0.21120E+02</wgt>
<wgt id='7013'>0.21030E+02</wgt>
<wgt id='7014'>0.21022E+02</wgt>
<wgt id='7015'>0.20960E+02</wgt>
<wgt id='7016'>0.21099E+02</wgt>
<wgt id='7017'>0.20992E+02</wgt>
<wgt id='7018'>0.21044E+02</wgt>
<wgt id='7019'>0.20993E+02</wgt>
<wgt id='7020'>0.21072E+02</wgt>
<wgt id='7021'>0.21021E+02</wgt>
<wgt id='7022'>0.21029E+02</wgt>
<wgt id='7023'>0.21302E+02</wgt>
<wgt id='7024'>0.20761E+02</wgt>
<wgt id='7025'>0.21132E+02</wgt>
<wgt id='7026'>0.20769E+02</wgt>
<wgt id='7027'>0.21133E+02</wgt>
<wgt id='7028'>0.20981E+02</wgt>
<wgt id='7029'>0.20910E+02</wgt>
<wgt id='7030'>0.21334E+02</wgt>
<wgt id='7031'>0.21030E+02</wgt>
<wgt id='7032'>0.21024E+02</wgt>
<wgt id='7033'>0.20990E+02</wgt>
<wgt id='7034'>0.21110E+02</wgt>
<wgt id='7035'>0.21100E+02</wgt>
<wgt id='7036'>0.21005E+02</wgt>
<wgt id='7037'>0.21039E+02</wgt>
<wgt id='7038'>0.21025E+02</wgt>
<wgt id='7039'>0.21008E+02</wgt>
<wgt id='7040'>0.21039E+02</wgt>
<wgt id='7041'>0.20956E+02</wgt>
<wgt id='7042'>0.21090E+02</wgt>
<wgt id='7043'>0.21048E+02</wgt>
<wgt id='7044'>0.20908E+02</wgt>
<wgt id='7045'>0.20809E+02</wgt>
<wgt id='7046'>0.21089E+02</wgt>
<wgt id='7047'>0.21043E+02</wgt>
<wgt id='7048'>0.21009E+02</wgt>
<wgt id='7049'>0.20972E+02</wgt>
<wgt id='7050'>0.20990E+02</wgt>
<wgt id='7060'>0.30885E+02</wgt>
<wgt id='8000'>0.21448E+02</wgt>
<wgt id='8001'>0.21442E+02</wgt>
<wgt id='8002'>0.21454E+02</wgt>
<wgt id='8003'>0.21451E+02</wgt>
<wgt id='8004'>0.21448E+02</wgt>
<wgt id='8005'>0.21396E+02</wgt>
<wgt id='8006'>0.21433E+02</wgt>
<wgt id='8007'>0.21418E+02</wgt>
<wgt id='8008'>0.21491E+02</wgt>
<wgt id='8009'>0.21536E+02</wgt>
<wgt id='8010'>0.21447E+02</wgt>
<wgt id='8011'>0.21435E+02</wgt>
<wgt id='8012'>0.21419E+02</wgt>
<wgt id='8013'>0.21445E+02</wgt>
<wgt id='8014'>0.21436E+02</wgt>
<wgt id='8015'>0.21433E+02</wgt>
<wgt id='8016'>0.21454E+02</wgt>
<wgt id='8017'>0.21449E+02</wgt>
<wgt id='8018'>0.21444E+02</wgt>
<wgt id='8019'>0.21497E+02</wgt>
<wgt id='8020'>0.21357E+02</wgt>
<wgt id='8021'>0.21454E+02</wgt>
<wgt id='8022'>0.21283E+02</wgt>
<wgt id='8023'>0.21484E+02</wgt>
<wgt id='8024'>0.21511E+02</wgt>
<wgt id='8025'>0.21545E+02</wgt>
<wgt id='8026'>0.21500E+02</wgt>
<wgt id='8027'>0.21403E+02</wgt>
<wgt id='8028'>0.21474E+02</wgt>
<wgt id='8029'>0.21225E+02</wgt>
<wgt id='8500'>0.22118E+02</wgt>
<wgt id='8501'>0.22086E+02</wgt>
<wgt id='8502'>0.22359E+02</wgt>
<wgt id='8503'>0.22279E+02</wgt>
<wgt id='8504'>0.22068E+02</wgt>
<wgt id='8505'>0.22002E+02</wgt>
<wgt id='8506'>0.22065E+02</wgt>
<wgt id='8507'>0.22240E+02</wgt>
<wgt id='8508'>0.22445E+02</wgt>
<wgt id='8509'>0.21978E+02</wgt>
<wgt id='8510'>0.22499E+02</wgt>
<wgt id='8511'>0.22140E+02</wgt>
<wgt id='8512'>0.21803E+02</wgt>
<wgt id='8513'>0.22154E+02</wgt>
<wgt id='8514'>0.21965E+02</wgt>
<wgt id='8515'>0.22127E+02</wgt>
<wgt id='8516'>0.22194E+02</wgt>
<wgt id='8517'>0.22036E+02</wgt>
<wgt id='8518'>0.22057E+02</wgt>
<wgt id='8519'>0.22057E+02</wgt>
<wgt id='8520'>0.22159E+02</wgt>
<wgt id='8521'>0.22010E+02</wgt>
<wgt id='8522'>0.22113E+02</wgt>
<wgt id='8523'>0.22080E+02</wgt>
<wgt id='8524'>0.22098E+02</wgt>
<wgt id='8525'>0.22099E+02</wgt>
<wgt id='8526'>0.22089E+02</wgt>
<wgt id='8527'>0.22115E+02</wgt>
<wgt id='8528'>0.22057E+02</wgt>
<wgt id='8529'>0.22102E+02</wgt>
<wgt id='8530'>0.22121E+02</wgt>
<wgt id='8531'>0.22109E+02</wgt>
<wgt id='8532'>0.22124E+02</wgt>
<wgt id='8533'>0.22075E+02</wgt>
<wgt id='8534'>0.22135E+02</wgt>
<wgt id='8535'>0.22166E+02</wgt>
<wgt id='8536'>0.22105E+02</wgt>
<wgt id='8537'>0.22129E+02</wgt>
<wgt id='8538'>0.22090E+02</wgt>
<wgt id='8539'>0.22122E+02</wgt>
<wgt id='8540'>0.22123E+02</wgt>
<wgt id='8541'>0.22127E+02</wgt>
<wgt id='8542'>0.22138E+02</wgt>
<wgt id='8543'>0.22101E+02</wgt>
<wgt id='8544'>0.22142E+02</wgt>
<wgt id='8545'>0.22139E+02</wgt>
<wgt id='8546'>0.22133E+02</wgt>
<wgt id='8547'>0.22101E+02</wgt>
<wgt id='8548'>0.22095E+02</wgt>
<wgt id='8549'>0.22119E+02</wgt>
<wgt id='8550'>0.22126E+02</wgt>
<wgt id='8551'>0.22093E+02</wgt>
<wgt id='8552'>0.22126E+02</wgt>
<wgt id='8553'>0.22115E+02</wgt>
<wgt id='8554'>0.22107E+02</wgt>
<wgt id='8555'>0.22122E+02</wgt>
<wgt id='8556'>0.22119E+02</wgt>
<wgt id='8557'>0.22111E+02</wgt>
<wgt id='8558'>0.22141E+02</wgt>
<wgt id='8559'>0.22108E+02</wgt>
<wgt id='8560'>0.22097E+02</wgt>
<wgt id='8561'>0.22113E+02</wgt>
<wgt id='8562'>0.22103E+02</wgt>
<wgt id='8563'>0.22119E+02</wgt>
<wgt id='8564'>0.22118E+02</wgt>
<wgt id='8565'>0.22115E+02</wgt>
<wgt id='8566'>0.22113E+02</wgt>
<wgt id='8567'>0.22117E+02</wgt>
<wgt id='8568'>0.22124E+02</wgt>
<wgt id='8569'>0.22122E+02</wgt>
<wgt id='8570'>0.22115E+02</wgt>
<wgt id='8571'>0.22113E+02</wgt>
<wgt id='8572'>0.22116E+02</wgt>
<wgt id='8573'>0.22111E+02</wgt>
<wgt id='8574'>0.22123E+02</wgt>
<wgt id='8575'>0.22116E+02</wgt>
<wgt id='8576'>0.22118E+02</wgt>
<wgt id='8577'>0.22118E+02</wgt>
<wgt id='8578'>0.22121E+02</wgt>
<wgt id='8579'>0.22130E+02</wgt>
<wgt id='8580'>0.22120E+02</wgt>
<wgt id='8581'>0.22119E+02</wgt>
<wgt id='8582'>0.22107E+02</wgt>
<wgt id='8583'>0.22125E+02</wgt>
<wgt id='8584'>0.22122E+02</wgt>
<wgt id='8585'>0.22120E+02</wgt>
<wgt id='8586'>0.22125E+02</wgt>
<wgt id='8587'>0.22116E+02</wgt>
<wgt id='8588'>0.22114E+02</wgt>
<wgt id='8589'>0.22120E+02</wgt>
<wgt id='8590'>0.22116E+02</wgt>
<wgt id='8591'>0.22117E+02</wgt>
<wgt id='8592'>0.22119E+02</wgt>
<wgt id='8593'>0.22112E+02</wgt>
<wgt id='8594'>0.22121E+02</wgt>
<wgt id='8595'>0.22120E+02</wgt>
<wgt id='8596'>0.22114E+02</wgt>
<wgt id='8597'>0.22120E+02</wgt>
<wgt id='8598'>0.22123E+02</wgt>
<wgt id='8599'>0.22122E+02</wgt>
<wgt id='8600'>0.22118E+02</wgt>
<wgt id='8601'>0.21762E+02</wgt>
<wgt id='8602'>0.22407E+02</wgt>
<wgt id='9000'>0.21050E+02</wgt>
<wgt id='9001'>0.21068E+02</wgt>
<wgt id='9002'>0.21170E+02</wgt>
<wgt id='9003'>0.20840E+02</wgt>
<wgt id='9004'>0.20995E+02</wgt>
<wgt id='9005'>0.21157E+02</wgt>
<wgt id='9006'>0.20976E+02</wgt>
<wgt id='9007'>0.21042E+02</wgt>
<wgt id='9008'>0.21094E+02</wgt>
<wgt id='9009'>0.21034E+02</wgt>
<wgt id='9010'>0.20992E+02</wgt>
<wgt id='9011'>0.21325E+02</wgt>
<wgt id='9012'>0.20780E+02</wgt>
<wgt id='9013'>0.20698E+02</wgt>
<wgt id='9014'>0.20778E+02</wgt>
<wgt id='9015'>0.21035E+02</wgt>
<wgt id='9016'>0.21206E+02</wgt>
<wgt id='9017'>0.21051E+02</wgt>
<wgt id='9018'>0.21012E+02</wgt>
<wgt id='9019'>0.21009E+02</wgt>
<wgt id='9020'>0.21168E+02</wgt>
<wgt id='9021'>0.21050E+02</wgt>
<wgt id='9022'>0.21077E+02</wgt>
<wgt id='9023'>0.21042E+02</wgt>
<wgt id='9024'>0.21023E+02</wgt>
<wgt id='9025'>0.21058E+02</wgt>
<wgt id='9026'>0.21061E+02</wgt>
<wgt id='9027'>0.21022E+02</wgt>
<wgt id='9028'>0.21067E+02</wgt>
<wgt id='9029'>0.21078E+02</wgt>
<wgt id='9030'>0.21062E+02</wgt>
<wgt id='9031'>0.21049E+02</wgt>
<wgt id='9032'>0.21061E+02</wgt>
<wgt id='9033'>0.21076E+02</wgt>
<wgt id='9034'>0.21033E+02</wgt>
<wgt id='9035'>0.21092E+02</wgt>
<wgt id='9036'>0.21044E+02</wgt>
<wgt id='9037'>0.21073E+02</wgt>
<wgt id='9038'>0.21044E+02</wgt>
<wgt id='9039'>0.21045E+02</wgt>
<wgt id='9040'>0.21020E+02</wgt>
<wgt id='9041'>0.21035E+02</wgt>
<wgt id='9042'>0.21038E+02</wgt>
<wgt id='9043'>0.21035E+02</wgt>
<wgt id='9044'>0.21056E+02</wgt>
<wgt id='9045'>0.21040E+02</wgt>
<wgt id='9046'>0.21019E+02</wgt>
<wgt id='9047'>0.21032E+02</wgt>
<wgt id='9048'>0.21057E+02</wgt>
<wgt id='9049'>0.21039E+02</wgt>
<wgt id='9050'>0.21058E+02</wgt>
<wgt id='9051'>0.21054E+02</wgt>
<wgt id='9052'>0.21049E+02</wgt>
<wgt id='9053'>0.21052E+02</wgt>
<wgt id='9054'>0.21037E+02</wgt>
<wgt id='9055'>0.21050E+02</wgt>
<wgt id='9056'>0.21072E+02</wgt>
<wgt id='9057'>0.21047E+02</wgt>
<wgt id='9058'>0.21038E+02</wgt>
<wgt id='9059'>0.21041E+02</wgt>
<wgt id='9060'>0.21044E+02</wgt>
<wgt id='9061'>0.21055E+02</wgt>
<wgt id='9062'>0.21053E+02</wgt>
<wgt id='9063'>0.21060E+02</wgt>
<wgt id='9064'>0.21044E+02</wgt>
<wgt id='9065'>0.21050E+02</wgt>
<wgt id='9066'>0.21052E+02</wgt>
<wgt id='9067'>0.21056E+02</wgt>
<wgt id='9068'>0.21059E+02</wgt>
<wgt id='9069'>0.21058E+02</wgt>
<wgt id='9070'>0.21049E+02</wgt>
<wgt id='9071'>0.21060E+02</wgt>
<wgt id='9072'>0.21059E+02</wgt>
<wgt id='9073'>0.21044E+02</wgt>
<wgt id='9074'>0.21054E+02</wgt>
<wgt id='9075'>0.21049E+02</wgt>
<wgt id='9076'>0.21047E+02</wgt>
<wgt id='9077'>0.21051E+02</wgt>
<wgt id='9078'>0.21051E+02</wgt>
<wgt id='9079'>0.21046E+02</wgt>
<wgt id='9080'>0.21060E+02</wgt>
<wgt id='9081'>0.21048E+02</wgt>
<wgt id='9082'>0.21054E+02</wgt>
<wgt id='9083'>0.21044E+02</wgt>
<wgt id='9084'>0.21046E+02</wgt>
<wgt id='9085'>0.21046E+02</wgt>
<wgt id='9086'>0.21053E+02</wgt>
<wgt id='9087'>0.21040E+02</wgt>
<wgt id='9088'>0.21046E+02</wgt>
<wgt id='9089'>0.21046E+02</wgt>
<wgt id='9090'>0.21052E+02</wgt>
<wgt id='9091'>0.21048E+02</wgt>
<wgt id='9092'>0.21050E+02</wgt>
<wgt id='9093'>0.21047E+02</wgt>
<wgt id='9094'>0.21048E+02</wgt>
<wgt id='9095'>0.21052E+02</wgt>
<wgt id='9096'>0.21047E+02</wgt>
<wgt id='9097'>0.21050E+02</wgt>
<wgt id='9098'>0.21050E+02</wgt>
<wgt id='9099'>0.21046E+02</wgt>
<wgt id='9100'>0.21050E+02</wgt>
<wgt id='9101'>0.20805E+02</wgt>
<wgt id='9102'>0.21223E+02</wgt>
<wgt id='10000'>0.22117E+02</wgt>
<wgt id='10001'>0.22238E+02</wgt>
<wgt id='10002'>0.22126E+02</wgt>
<wgt id='10003'>0.22123E+02</wgt>
<wgt id='10004'>0.22168E+02</wgt>
<wgt id='10005'>0.22834E+02</wgt>
<wgt id='10006'>0.22123E+02</wgt>
<wgt id='10007'>0.22111E+02</wgt>
<wgt id='10008'>0.22153E+02</wgt>
<wgt id='10009'>0.22088E+02</wgt>
<wgt id='10010'>0.22131E+02</wgt>
<wgt id='10011'>0.22106E+02</wgt>
<wgt id='10012'>0.22091E+02</wgt>
<wgt id='10013'>0.22110E+02</wgt>
<wgt id='10014'>0.22118E+02</wgt>
<wgt id='10015'>0.22142E+02</wgt>
<wgt id='10016'>0.22117E+02</wgt>
<wgt id='10017'>0.21990E+02</wgt>
<wgt id='10018'>0.22133E+02</wgt>
<wgt id='10019'>0.22108E+02</wgt>
<wgt id='10020'>0.22128E+02</wgt>
<wgt id='10021'>0.22119E+02</wgt>
<wgt id='10022'>0.22076E+02</wgt>
<wgt id='10023'>0.22124E+02</wgt>
<wgt id='10024'>0.22117E+02</wgt>
<wgt id='10025'>0.22104E+02</wgt>
<wgt id='10026'>0.22124E+02</wgt>
<wgt id='10027'>0.22124E+02</wgt>
<wgt id='10028'>0.22179E+02</wgt>
<wgt id='10029'>0.22139E+02</wgt>
<wgt id='10030'>0.22113E+02</wgt>
<wgt id='10031'>0.21762E+02</wgt>
<wgt id='10032'>0.22407E+02</wgt>
<wgt id='11000'>0.21048E+02</wgt>
<wgt id='11001'>0.21040E+02</wgt>
<wgt id='11002'>0.21144E+02</wgt>
<wgt id='11003'>0.21021E+02</wgt>
<wgt id='11004'>0.21150E+02</wgt>
<wgt id='11005'>0.20685E+02</wgt>
<wgt id='11006'>0.21047E+02</wgt>
<wgt id='11007'>0.20994E+02</wgt>
<wgt id='11008'>0.20992E+02</wgt>
<wgt id='11009'>0.20941E+02</wgt>
<wgt id='11010'>0.21091E+02</wgt>
<wgt id='11011'>0.20921E+02</wgt>
<wgt id='11012'>0.21073E+02</wgt>
<wgt id='11013'>0.21132E+02</wgt>
<wgt id='11014'>0.20979E+02</wgt>
<wgt id='11015'>0.21024E+02</wgt>
<wgt id='11016'>0.21017E+02</wgt>
<wgt id='11017'>0.21255E+02</wgt>
<wgt id='11018'>0.21046E+02</wgt>
<wgt id='11019'>0.21041E+02</wgt>
<wgt id='11020'>0.21085E+02</wgt>
<wgt id='11021'>0.21124E+02</wgt>
<wgt id='11022'>0.21520E+02</wgt>
<wgt id='11023'>0.21041E+02</wgt>
<wgt id='11024'>0.21037E+02</wgt>
<wgt id='11025'>0.21009E+02</wgt>
<wgt id='11026'>0.21050E+02</wgt>
<wgt id='11027'>0.21037E+02</wgt>
<wgt id='11028'>0.21047E+02</wgt>
<wgt id='11029'>0.21075E+02</wgt>
<wgt id='11030'>0.21048E+02</wgt>
<wgt id='11031'>0.20805E+02</wgt>
<wgt id='11032'>0.21223E+02</wgt>
<wgt id='12000'>0.23873E+02</wgt>
<wgt id='12001'>0.23840E+02</wgt>
<wgt id='12002'>0.23907E+02</wgt>
<wgt id='12003'>0.23936E+02</wgt>
<wgt id='12004'>0.23811E+02</wgt>
<wgt id='12005'>0.23923E+02</wgt>
<wgt id='12006'>0.23823E+02</wgt>
<wgt id='12007'>0.23946E+02</wgt>
<wgt id='12008'>0.23803E+02</wgt>
<wgt id='12009'>0.23922E+02</wgt>
<wgt id='12010'>0.23825E+02</wgt>
<wgt id='12011'>0.23819E+02</wgt>
<wgt id='12012'>0.23933E+02</wgt>
<wgt id='12013'>0.23765E+02</wgt>
<wgt id='12014'>0.23983E+02</wgt>
<wgt id='12015'>0.23869E+02</wgt>
<wgt id='12016'>0.23841E+02</wgt>
<wgt id='12017'>0.23960E+02</wgt>
<wgt id='12018'>0.23781E+02</wgt>
<wgt id='12019'>0.23767E+02</wgt>
<wgt id='12020'>0.23974E+02</wgt>
<wgt id='12021'>0.23978E+02</wgt>
<wgt id='12022'>0.23738E+02</wgt>
<wgt id='12023'>0.23771E+02</wgt>
<wgt id='12024'>0.23835E+02</wgt>
<wgt id='12025'>0.23957E+02</wgt>
<wgt id='12026'>0.23829E+02</wgt>
<wgt id='12027'>0.23855E+02</wgt>
<wgt id='12028'>0.23913E+02</wgt>
<wgt id='12050'>0.23873E+02</wgt>
<wgt id='12051'>0.23824E+02</wgt>
<wgt id='12052'>0.23918E+02</wgt>
<wgt id='12053'>0.23814E+02</wgt>
<wgt id='12054'>0.23904E+02</wgt>
<wgt id='12055'>0.23979E+02</wgt>
<wgt id='12056'>0.23645E+02</wgt>
<wgt id='12057'>0.23773E+02</wgt>
<wgt id='12058'>0.23967E+02</wgt>
<wgt id='12059'>0.23807E+02</wgt>
<wgt id='12060'>0.23945E+02</wgt>
<wgt id='12061'>0.23870E+02</wgt>
<wgt id='12062'>0.23921E+02</wgt>
<wgt id='12063'>0.23545E+02</wgt>
<wgt id='13000'>0.21323E+02</wgt>
<wgt id='13001'>0.21307E+02</wgt>
<wgt id='13002'>0.21336E+02</wgt>
<wgt id='13003'>0.21350E+02</wgt>
<wgt id='13004'>0.21294E+02</wgt>
<wgt id='13005'>0.21383E+02</wgt>
<wgt id='13006'>0.21261E+02</wgt>
<wgt id='13007'>0.21421E+02</wgt>
<wgt id='13008'>0.21225E+02</wgt>
<wgt id='13009'>0.21324E+02</wgt>
<wgt id='13010'>0.21320E+02</wgt>
<wgt id='13011'>0.21389E+02</wgt>
<wgt id='13012'>0.21254E+02</wgt>
<wgt id='13013'>0.21248E+02</wgt>
<wgt id='13014'>0.21395E+02</wgt>
<wgt id='13015'>0.21278E+02</wgt>
<wgt id='13016'>0.21344E+02</wgt>
<wgt id='13017'>0.21312E+02</wgt>
<wgt id='13018'>0.21326E+02</wgt>
<wgt id='13019'>0.21269E+02</wgt>
<wgt id='13020'>0.21372E+02</wgt>
<wgt id='13021'>0.21106E+02</wgt>
<wgt id='13022'>0.21501E+02</wgt>
<wgt id='13023'>0.21354E+02</wgt>
<wgt id='13024'>0.21287E+02</wgt>
<wgt id='13025'>0.21279E+02</wgt>
<wgt id='13026'>0.21303E+02</wgt>
<wgt id='13027'>0.21347E+02</wgt>
<wgt id='13028'>0.21322E+02</wgt>
<wgt id='13050'>0.21323E+02</wgt>
<wgt id='13051'>0.21306E+02</wgt>
<wgt id='13052'>0.21297E+02</wgt>
<wgt id='13053'>0.21291E+02</wgt>
<wgt id='13054'>0.21328E+02</wgt>
<wgt id='13055'>0.21349E+02</wgt>
<wgt id='13056'>0.21266E+02</wgt>
<wgt id='13057'>0.21241E+02</wgt>
<wgt id='13058'>0.21445E+02</wgt>
<wgt id='13059'>0.21248E+02</wgt>
<wgt id='13060'>0.21435E+02</wgt>
<wgt id='13061'>0.21254E+02</wgt>
<wgt id='13062'>0.21514E+02</wgt>
<wgt id='13063'>0.21138E+02</wgt>
<wgt id='14000'>0.21870E+02</wgt>
<wgt id='14001'>0.21866E+02</wgt>
<wgt id='14002'>0.21862E+02</wgt>
<wgt id='14003'>0.21858E+02</wgt>
<wgt id='14004'>0.21855E+02</wgt>
<wgt id='14005'>0.21851E+02</wgt>
<wgt id='14006'>0.21847E+02</wgt>
<wgt id='14007'>0.21844E+02</wgt>
<wgt id='14008'>0.21840E+02</wgt>
<wgt id='14009'>0.21836E+02</wgt>
<wgt id='14010'>0.21833E+02</wgt>
<wgt id='14011'>0.21829E+02</wgt>
<wgt id='14012'>0.21825E+02</wgt>
<wgt id='14013'>0.21821E+02</wgt>
<wgt id='14014'>0.21818E+02</wgt>
<wgt id='14015'>0.21814E+02</wgt>
<wgt id='14016'>0.21810E+02</wgt>
<wgt id='14017'>0.21807E+02</wgt>
<wgt id='14018'>0.21803E+02</wgt>
<wgt id='14019'>0.21799E+02</wgt>
<wgt id='14020'>0.21795E+02</wgt>
<wgt id='14021'>0.21792E+02</wgt>
<wgt id='14022'>0.21788E+02</wgt>
<wgt id='14023'>0.21784E+02</wgt>
<wgt id='14024'>0.21781E+02</wgt>
<wgt id='14025'>0.21777E+02</wgt>
<wgt id='14026'>0.21773E+02</wgt>
<wgt id='14027'>0.21769E+02</wgt>
<wgt id='14028'>0.21766E+02</wgt>
<wgt id='14029'>0.21762E+02</wgt>
<wgt id='14030'>0.21758E+02</wgt>
<wgt id='15000'>0.20798E+02</wgt>
<wgt id='15001'>0.20817E+02</wgt>
<wgt id='15002'>0.20918E+02</wgt>
<wgt id='15003'>0.20590E+02</wgt>
<wgt id='15004'>0.20744E+02</wgt>
<wgt id='15005'>0.20904E+02</wgt>
<wgt id='15006'>0.20724E+02</wgt>
<wgt id='15007'>0.20789E+02</wgt>
<wgt id='15008'>0.20842E+02</wgt>
<wgt id='15009'>0.20782E+02</wgt>
<wgt id='15010'>0.20741E+02</wgt>
<wgt id='15011'>0.21069E+02</wgt>
<wgt id='15012'>0.20531E+02</wgt>
<wgt id='15013'>0.20450E+02</wgt>
<wgt id='15014'>0.20530E+02</wgt>
<wgt id='15015'>0.20785E+02</wgt>
<wgt id='15016'>0.20951E+02</wgt>
<wgt id='15017'>0.20800E+02</wgt>
<wgt id='15018'>0.20762E+02</wgt>
<wgt id='15019'>0.20757E+02</wgt>
<wgt id='15020'>0.20914E+02</wgt>
<wgt id='15021'>0.20797E+02</wgt>
<wgt id='15022'>0.20826E+02</wgt>
<wgt id='15023'>0.20788E+02</wgt>
<wgt id='15024'>0.20771E+02</wgt>
<wgt id='15025'>0.20808E+02</wgt>
<wgt id='15026'>0.20810E+02</wgt>
<wgt id='15027'>0.20769E+02</wgt>
<wgt id='15028'>0.20815E+02</wgt>
<wgt id='15029'>0.20826E+02</wgt>
<wgt id='15030'>0.20810E+02</wgt>
<wgt id='15031'>0.20796E+02</wgt>
<wgt id='15032'>0.20809E+02</wgt>
<wgt id='15033'>0.20824E+02</wgt>
<wgt id='15034'>0.20782E+02</wgt>
<wgt id='15035'>0.20841E+02</wgt>
<wgt id='15036'>0.20792E+02</wgt>
<wgt id='15037'>0.20821E+02</wgt>
<wgt id='15038'>0.20793E+02</wgt>
<wgt id='15039'>0.20794E+02</wgt>
<wgt id='15040'>0.20768E+02</wgt>
<wgt id='15041'>0.20783E+02</wgt>
<wgt id='15042'>0.20787E+02</wgt>
<wgt id='15043'>0.20783E+02</wgt>
<wgt id='15044'>0.20804E+02</wgt>
<wgt id='15045'>0.20789E+02</wgt>
<wgt id='15046'>0.20767E+02</wgt>
<wgt id='15047'>0.20781E+02</wgt>
<wgt id='15048'>0.20805E+02</wgt>
<wgt id='15049'>0.20788E+02</wgt>
<wgt id='15050'>0.20806E+02</wgt>
<wgt id='15051'>0.20802E+02</wgt>
<wgt id='15052'>0.20797E+02</wgt>
<wgt id='15053'>0.20800E+02</wgt>
<wgt id='15054'>0.20785E+02</wgt>
<wgt id='15055'>0.20798E+02</wgt>
<wgt id='15056'>0.20821E+02</wgt>
<wgt id='15057'>0.20795E+02</wgt>
<wgt id='15058'>0.20786E+02</wgt>
<wgt id='15059'>0.20789E+02</wgt>
<wgt id='15060'>0.20792E+02</wgt>
<wgt id='15061'>0.20803E+02</wgt>
<wgt id='15062'>0.20801E+02</wgt>
<wgt id='15063'>0.20808E+02</wgt>
<wgt id='15064'>0.20792E+02</wgt>
<wgt id='15065'>0.20798E+02</wgt>
<wgt id='15066'>0.20800E+02</wgt>
<wgt id='15067'>0.20805E+02</wgt>
<wgt id='15068'>0.20807E+02</wgt>
<wgt id='15069'>0.20806E+02</wgt>
<wgt id='15070'>0.20797E+02</wgt>
<wgt id='15071'>0.20808E+02</wgt>
<wgt id='15072'>0.20807E+02</wgt>
<wgt id='15073'>0.20792E+02</wgt>
<wgt id='15074'>0.20802E+02</wgt>
<wgt id='15075'>0.20797E+02</wgt>
<wgt id='15076'>0.20795E+02</wgt>
<wgt id='15077'>0.20799E+02</wgt>
<wgt id='15078'>0.20799E+02</wgt>
<wgt id='15079'>0.20794E+02</wgt>
<wgt id='15080'>0.20809E+02</wgt>
<wgt id='15081'>0.20796E+02</wgt>
<wgt id='15082'>0.20803E+02</wgt>
<wgt id='15083'>0.20792E+02</wgt>
<wgt id='15084'>0.20794E+02</wgt>
<wgt id='15085'>0.20794E+02</wgt>
<wgt id='15086'>0.20800E+02</wgt>
<wgt id='15087'>0.20788E+02</wgt>
<wgt id='15088'>0.20795E+02</wgt>
<wgt id='15089'>0.20794E+02</wgt>
<wgt id='15090'>0.20801E+02</wgt>
<wgt id='15091'>0.20796E+02</wgt>
<wgt id='15092'>0.20798E+02</wgt>
<wgt id='15093'>0.20796E+02</wgt>
<wgt id='15094'>0.20797E+02</wgt>
<wgt id='15095'>0.20800E+02</wgt>
<wgt id='15096'>0.20795E+02</wgt>
<wgt id='15097'>0.20798E+02</wgt>
<wgt id='15098'>0.20798E+02</wgt>
<wgt id='15099'>0.20794E+02</wgt>
<wgt id='15100'>0.20798E+02</wgt>
<wgt id='15101'>0.20798E+02</wgt>
<wgt id='15102'>0.20796E+02</wgt>
<wgt id='15103'>0.20798E+02</wgt>
<wgt id='15104'>0.20798E+02</wgt>
<wgt id='15105'>0.20799E+02</wgt>
<wgt id='15106'>0.20798E+02</wgt>
<wgt id='15107'>0.20797E+02</wgt>
<wgt id='1500'>0.21972E+02</wgt>
<wgt id='1501'>0.19942E+02</wgt>
<wgt id='1502'>0.22021E+02</wgt>
<wgt id='1503'>0.21818E+02</wgt>
<wgt id='1504'>0.21732E+02</wgt>
<wgt id='1505'>0.19024E+02</wgt>
<wgt id='1506'>0.22164E+02</wgt>
<wgt id='1507'>0.22319E+02</wgt>
<wgt id='1508'>0.21951E+02</wgt>
<wgt id='1509'>0.22010E+02</wgt>
<wgt id='1510'>0.21168E+02</wgt>
<wgt id='1511'>0.21372E+02</wgt>
<wgt id='1512'>0.22467E+02</wgt>
<wgt id='1513'>0.22491E+02</wgt>
<wgt id='1514'>0.21190E+02</wgt>
<wgt id='1515'>0.22130E+02</wgt>
<wgt id='1516'>0.22395E+02</wgt>
<wgt id='1517'>0.21444E+02</wgt>
<wgt id='1518'>0.21752E+02</wgt>
<wgt id='1519'>0.22361E+02</wgt>
<wgt id='1520'>0.22375E+02</wgt>
<wgt id='1521'>0.22148E+02</wgt>
<wgt id='1522'>0.21834E+02</wgt>
<wgt id='1523'>0.24001E+02</wgt>
<wgt id='1524'>0.21845E+02</wgt>
<wgt id='1525'>0.22321E+02</wgt>
<wgt id='1526'>0.21630E+02</wgt>
<wgt id='1527'>0.21617E+02</wgt>
<wgt id='1528'>0.21690E+02</wgt>
<wgt id='1529'>0.21663E+02</wgt>
<wgt id='1530'>0.22527E+02</wgt>
<wgt id='1531'>0.21929E+02</wgt>
<wgt id='1532'>0.21252E+02</wgt>
<wgt id='1533'>0.22389E+02</wgt>
<wgt id='1534'>0.22184E+02</wgt>
<wgt id='1535'>0.22567E+02</wgt>
<wgt id='1536'>0.22720E+02</wgt>
<wgt id='1537'>0.22276E+02</wgt>
<wgt id='1538'>0.22000E+02</wgt>
<wgt id='1539'>0.21135E+02</wgt>
<wgt id='1540'>0.22351E+02</wgt>
<wgt id='1541'>0.22029E+02</wgt>
<wgt id='1542'>0.22300E+02</wgt>
<wgt id='1543'>0.22306E+02</wgt>
<wgt id='1544'>0.21797E+02</wgt>
<wgt id='1545'>0.22293E+02</wgt>
<wgt id='1546'>0.22325E+02</wgt>
<wgt id='1547'>0.21566E+02</wgt>
<wgt id='1548'>0.21556E+02</wgt>
<wgt id='1549'>0.22040E+02</wgt>
<wgt id='1550'>0.22052E+02</wgt>
<wgt id='1551'>0.21974E+02</wgt>
<wgt id='1552'>0.21844E+02</wgt>
<wgt id='1553'>0.22352E+02</wgt>
<wgt id='1554'>0.22051E+02</wgt>
<wgt id='1555'>0.21986E+02</wgt>
<wgt id='1556'>0.21257E+02</wgt>
<wgt id='1557'>0.22992E+02</wgt>
<wgt id='1558'>0.21718E+02</wgt>
<wgt id='1559'>0.22285E+02</wgt>
<wgt id='1560'>0.21955E+02</wgt>
<wgt id='1561'>0.22200E+02</wgt>
<wgt id='1562'>0.22025E+02</wgt>
<wgt id='1563'>0.22327E+02</wgt>
<wgt id='1564'>0.21502E+02</wgt>
<wgt id='1565'>0.22283E+02</wgt>
<wgt id='1566'>0.22058E+02</wgt>
<wgt id='1567'>0.23284E+02</wgt>
<wgt id='1568'>0.21606E+02</wgt>
<wgt id='1569'>0.21304E+02</wgt>
<wgt id='1570'>0.21963E+02</wgt>
<wgt id='1571'>0.22608E+02</wgt>
<wgt id='1572'>0.21915E+02</wgt>
<wgt id='1573'>0.20091E+02</wgt>
<wgt id='1574'>0.22115E+02</wgt>
<wgt id='1575'>0.21772E+02</wgt>
<wgt id='1576'>0.21364E+02</wgt>
<wgt id='1577'>0.22238E+02</wgt>
<wgt id='1578'>0.22873E+02</wgt>
<wgt id='1579'>0.21867E+02</wgt>
<wgt id='1580'>0.22170E+02</wgt>
<wgt id='1581'>0.22169E+02</wgt>
<wgt id='1582'>0.21691E+02</wgt>
<wgt id='1583'>0.22139E+02</wgt>
<wgt id='1584'>0.22030E+02</wgt>
<wgt id='1585'>0.21241E+02</wgt>
<wgt id='1586'>0.21811E+02</wgt>
<wgt id='1587'>0.21838E+02</wgt>
<wgt id='1588'>0.21945E+02</wgt>
<wgt id='1589'>0.22612E+02</wgt>
<wgt id='1590'>0.21850E+02</wgt>
<wgt id='1591'>0.21394E+02</wgt>
<wgt id='1592'>0.22617E+02</wgt>
<wgt id='1593'>0.21797E+02</wgt>
<wgt id='1594'>0.22492E+02</wgt>
<wgt id='1595'>0.21362E+02</wgt>
<wgt id='1596'>0.22387E+02</wgt>
<wgt id='1597'>0.22078E+02</wgt>
<wgt id='1598'>0.23132E+02</wgt>
<wgt id='1599'>0.22663E+02</wgt>
<wgt id='1600'>0.21973E+02</wgt>
<wgt id='1601'>0.21672E+02</wgt>
<wgt id='1602'>0.22096E+02</wgt>
<wgt id='1700'>0.21236E+02</wgt>
<wgt id='1800'>0.25500E+02</wgt>
<wgt id='1850'>0.30072E+02</wgt>
<wgt id='1900'>0.25193E+02</wgt>
<wgt id='1950'>0.29075E+02</wgt>
</rwgt>
</event>
<event>
      4   9999  2.16956E+01  1.17101E+01 -1.00000E+00  1.84426E-01
      21    -1     0     0   511   501  0.000000000E+00  0.000000000E+00  4.532369426E+02  4.532369426E+02  0.000000000E+00  0.00000E+00  9.000E+00
      21    -1     0     0   501   502  0.000000000E+00  0.000000000E+00 -7.665364796E+01  7.665364796E+01  0.000000000E+00  0.00000E+00  9.000E+00
      25     1     1     2     0     0 -1.146860471E+01 -2.365870286E+00 -2.510224913E+01  1.280343945E+02  1.250022281E+02  0.00000E+00  9.000E+00
      21     1     1     2   511   502  1.146860471E+01  2.365870286E+00  4.016855437E+02  4.018561960E+02  5.394796609E-06  0.00000E+00  9.000E+00
#rwgt            1           1   21.026979680471101                1        2053           0
<rwgt>
<wgt id='1001'>0.21696E+02</wgt>
<wgt id='1002'>0.19089E+02</wgt>
<wgt id='1003'>0.24369E+02</wgt>
<wgt id='1004'>0.18589E+02</wgt>
<wgt id='1005'>0.16726E+02</wgt>
<wgt id='1006'>0.20464E+02</wgt>
<wgt id='1007'>0.25629E+02</wgt>
<wgt id='1008'>0.21881E+02</wgt>
<wgt id='1009'>0.29543E+02</wgt>
<wgt id='2000'>0.21696E+02</wgt>
<wgt id='2001'>0.21676E+02</wgt>
<wgt id='2002'>0.21774E+02</wgt>
<wgt id='2003'>0.21765E+02</wgt>
<wgt id='2004'>0.21729E+02</wgt>
<wgt id='2005'>0.21646E+02</wgt>
<wgt id='2006'>0.21632E+02</wgt>
<wgt id='2007'>0.21614E+02</wgt>
<wgt id='2008'>0.21653E+02</wgt>
<wgt id='2009'>0.21720E+02</wgt>
<wgt id='2010'>0.21680E+02</wgt>
<wgt id='2011'>0.21774E+02</wgt>
<wgt id='2012'>0.21799E+02</wgt>
<wgt id='2013'>0.21863E+02</wgt>
<wgt id='2014'>0.21762E+02</wgt>
<wgt id='2015'>0.21732E+02</wgt>
<wgt id='2016'>0.21649E+02</wgt>
<wgt id='2017'>0.21690E+02</wgt>
<wgt id='2018'>0.21763E+02</wgt>
<wgt id='2019'>0.21690E+02</wgt>
<wgt id='2020'>0.21737E+02</wgt>
<wgt id='2021'>0.21676E+02</wgt>
<wgt id='2022'>0.21686E+02</wgt>
<wgt id='2023'>0.21708E+02</wgt>
<wgt id='2024'>0.21701E+02</wgt>
<wgt id='2025'>0.21677E+02</wgt>
<wgt id='2026'>0.21684E+02</wgt>
<wgt id='2027'>0.21685E+02</wgt>
<wgt id='2028'>0.21695E+02</wgt>
<wgt id='2029'>0.21736E+02</wgt>
<wgt id='2030'>0.21706E+02</wgt>
<wgt id='2031'>0.21701E+02</wgt>
<wgt id='2032'>0.21703E+02</wgt>
<wgt id='2033'>0.21703E+02</wgt>
<wgt id='2034'>0.21701E+02</wgt>
<wgt id='2035'>0.21684E+02</wgt>
<wgt id='2036'>0.21694E+02</wgt>
<wgt id='2037'>0.21698E+02</wgt>
<wgt id='2038'>0.21689E+02</wgt>
<wgt id='2039'>0.21698E+02</wgt>
<wgt id='2040'>0.21707E+02</wgt>
<wgt id='2041'>0.21696E+02</wgt>
<wgt id='2042'>0.21668E+02</wgt>
<wgt id='2043'>0.21700E+02</wgt>
<wgt id='2044'>0.21704E+02</wgt>
<wgt id='2045'>0.21692E+02</wgt>
<wgt id='2046'>0.21712E+02</wgt>
<wgt id='2047'>0.21717E+02</wgt>
<wgt id='2048'>0.21689E+02</wgt>
<wgt id='2049'>0.21694E+02</wgt>
<wgt id='2050'>0.21710E+02</wgt>
<wgt id='2051'>0.21714E+02</wgt>
<wgt id='2052'>0.21693E+02</wgt>
<wgt id='2053'>0.21696E+02</wgt>
<wgt id='2054'>0.21697E+02</wgt>
<wgt id='2055'>0.21703E+02</wgt>
<wgt id='2056'>0.21694E+02</wgt>
<wgt id='2057'>0.21697E+02</wgt>
<wgt id='2058'>0.21697E+02</wgt>
<wgt id='2059'>0.21694E+02</wgt>
<wgt id='2060'>0.21700E+02</wgt>
<wgt id='2061'>0.21691E+02</wgt>
<wgt id='2062'>0.21700E+02</wgt>
<wgt id='2063'>0.21690E+02</wgt>
<wgt id='2064'>0.21685E+02</wgt>
<wgt id='2065'>0.21699E+02</wgt>
<wgt id='2066'>0.21687E+02</wgt>
<wgt id='2067'>0.21698E+02</wgt>
<wgt id='2068'>0.21702E+02</wgt>
<wgt id='2069'>0.21693E+02</wgt>
<wgt id='2070'>0.21702E+02</wgt>
<wgt id='2071'>0.21687E+02</wgt>
<wgt id='2072'>0.21696E+02</wgt>
<wgt id='2073'>0.21703E+02</wgt>
<wgt id='2074'>0.21695E+02</wgt>
<wgt id='2075'>0.21696E+02</wgt>
<wgt id='2076'>0.21692E+02</wgt>
<wgt id='2077'>0.21699E+02</wgt>
<wgt id='2078'>0.21693E+02</wgt>
<wgt id='2079'>0.21698E+02</wgt>
<wgt id='2080'>0.21693E+02</wgt>
<wgt id='2081'>0.21698E+02</wgt>
<wgt id='2082'>0.21696E+02</wgt>
<wgt id='2083'>0.21694E+02</wgt>
<wgt id='2084'>0.21698E+02</wgt>
<wgt id='2085'>0.21692E+02</wgt>
<wgt id='2086'>0.21693E+02</wgt>
<wgt id='2087'>0.21697E+02</wgt>
<wgt id='2088'>0.21697E+02</wgt>
<wgt id='2089'>0.21695E+02</wgt>
<wgt id='2090'>0.21693E+02</wgt>
<wgt id='2091'>0.21696E+02</wgt>
<wgt id='2092'>0.21699E+02</wgt>
<wgt id='2093'>0.21693E+02</wgt>
<wgt id='2094'>0.21699E+02</wgt>
<wgt id='2095'>0.21697E+02</wgt>
<wgt id='2096'>0.21697E+02</wgt>
<wgt id='2097'>0.21694E+02</wgt>
<wgt id='2098'>0.21696E+02</wgt>
<wgt id='2099'>0.21695E+02</wgt>
<wgt id='2100'>0.21696E+02</wgt>
<wgt id='2101'>0.21126E+02</wgt>
<wgt id='2102'>0.22216E+02</wgt>
<wgt id='2104'>0.19020E+02</wgt>
<wgt id='2105'>0.19484E+02</wgt>
<wgt id='2106'>0.20026E+02</wgt>
<wgt id='2107'>0.20601E+02</wgt>
<wgt id='2108'>0.21461E+02</wgt>
<wgt id='2109'>0.22019E+02</wgt>
<wgt id='2110'>0.22746E+02</wgt>
<wgt id='2111'>0.23306E+02</wgt>
<wgt id='3000'>0.22623E+02</wgt>
<wgt id='3001'>0.22693E+02</wgt>
<wgt id='3002'>0.22552E+02</wgt>
<wgt id='3003'>0.22691E+02</wgt>
<wgt id='3004'>0.22677E+02</wgt>
<wgt id='3005'>0.22716E+02</wgt>
<wgt id='3006'>0.22648E+02</wgt>
<wgt id='3007'>0.22667E+02</wgt>
<wgt id='3008'>0.22559E+02</wgt>
<wgt id='3009'>0.22610E+02</wgt>
<wgt id='3010'>0.22540E+02</wgt>
<wgt id='3011'>0.22663E+02</wgt>
<wgt id='3012'>0.22768E+02</wgt>
<wgt id='3013'>0.22465E+02</wgt>
<wgt id='3014'>0.22703E+02</wgt>
<wgt id='3015'>0.22695E+02</wgt>
<wgt id='3016'>0.22634E+02</wgt>
<wgt id='3017'>0.22709E+02</wgt>
<wgt id='3018'>0.22642E+02</wgt>
<wgt id='3019'>0.22560E+02</wgt>
<wgt id='3020'>0.22626E+02</wgt>
<wgt id='3021'>0.22592E+02</wgt>
<wgt id='3022'>0.22618E+02</wgt>
<wgt id='3023'>0.22610E+02</wgt>
<wgt id='3024'>0.22639E+02</wgt>
<wgt id='3025'>0.22628E+02</wgt>
<wgt id='3026'>0.22607E+02</wgt>
<wgt id='3027'>0.22635E+02</wgt>
<wgt id='3028'>0.22627E+02</wgt>
<wgt id='3029'>0.22628E+02</wgt>
<wgt id='3030'>0.22655E+02</wgt>
<wgt id='3031'>0.22636E+02</wgt>
<wgt id='3032'>0.22608E+02</wgt>
<wgt id='3033'>0.22619E+02</wgt>
<wgt id='3034'>0.22620E+02</wgt>
<wgt id='3035'>0.22627E+02</wgt>
<wgt id='3036'>0.22633E+02</wgt>
<wgt id='3037'>0.22634E+02</wgt>
<wgt id='3038'>0.22623E+02</wgt>
<wgt id='3039'>0.22626E+02</wgt>
<wgt id='3040'>0.22629E+02</wgt>
<wgt id='3041'>0.22629E+02</wgt>
<wgt id='3042'>0.22607E+02</wgt>
<wgt id='3043'>0.22605E+02</wgt>
<wgt id='3044'>0.22632E+02</wgt>
<wgt id='3045'>0.22635E+02</wgt>
<wgt id='3046'>0.22646E+02</wgt>
<wgt id='3047'>0.22620E+02</wgt>
<wgt id='3048'>0.22634E+02</wgt>
<wgt id='3049'>0.22619E+02</wgt>
<wgt id='3050'>0.22604E+02</wgt>
<wgt id='3051'>0.22652E+02</wgt>
<wgt id='3052'>0.22616E+02</wgt>
<wgt id='3053'>0.22616E+02</wgt>
<wgt id='3054'>0.22621E+02</wgt>
<wgt id='3055'>0.22615E+02</wgt>
<wgt id='3056'>0.22630E+02</wgt>
<wgt id='3057'>0.22620E+02</wgt>
<wgt id='3058'>0.22616E+02</wgt>
<wgt id='3059'>0.22622E+02</wgt>
<wgt id='3060'>0.22620E+02</wgt>
<wgt id='3061'>0.22629E+02</wgt>
<wgt id='3062'>0.22623E+02</wgt>
<wgt id='3063'>0.22639E+02</wgt>
<wgt id='3064'>0.22615E+02</wgt>
<wgt id='3065'>0.22629E+02</wgt>
<wgt id='3066'>0.22620E+02</wgt>
<wgt id='3067'>0.22617E+02</wgt>
<wgt id='3068'>0.22622E+02</wgt>
<wgt id='3069'>0.22620E+02</wgt>
<wgt id='3070'>0.22620E+02</wgt>
<wgt id='3071'>0.22623E+02</wgt>
<wgt id='3072'>0.22626E+02</wgt>
<wgt id='3073'>0.22619E+02</wgt>
<wgt id='3074'>0.22626E+02</wgt>
<wgt id='3075'>0.22624E+02</wgt>
<wgt id='3076'>0.22617E+02</wgt>
<wgt id='3077'>0.22620E+02</wgt>
<wgt id='3078'>0.22627E+02</wgt>
<wgt id='3079'>0.22629E+02</wgt>
<wgt id='3080'>0.22622E+02</wgt>
<wgt id='3081'>0.22627E+02</wgt>
<wgt id='3082'>0.22627E+02</wgt>
<wgt id='3083'>0.22624E+02</wgt>
<wgt id='3084'>0.22625E+02</wgt>
<wgt id='3085'>0.22622E+02</wgt>
<wgt id='3086'>0.22625E+02</wgt>
<wgt id='3087'>0.22626E+02</wgt>
<wgt id='3088'>0.22625E+02</wgt>
<wgt id='3089'>0.22625E+02</wgt>
<wgt id='3090'>0.22625E+02</wgt>
<wgt id='3091'>0.22627E+02</wgt>
<wgt id='3092'>0.22623E+02</wgt>
<wgt id='3093'>0.22621E+02</wgt>
<wgt id='3094'>0.22625E+02</wgt>
<wgt id='3095'>0.22622E+02</wgt>
<wgt id='3096'>0.22622E+02</wgt>
<wgt id='3097'>0.22620E+02</wgt>
<wgt id='3098'>0.22622E+02</wgt>
<wgt id='3099'>0.22624E+02</wgt>
<wgt id='3100'>0.22623E+02</wgt>
<wgt id='3101'>0.22051E+02</wgt>
<wgt id='3102'>0.23279E+02</wgt>
<wgt id='5000'>0.21280E+02</wgt>
<wgt id='5001'>0.21172E+02</wgt>
<wgt id='5002'>0.21250E+02</wgt>
<wgt id='5003'>0.21145E+02</wgt>
<wgt id='5004'>0.21322E+02</wgt>
<wgt id='5005'>0.20793E+02</wgt>
<wgt id='5006'>0.21462E+02</wgt>
<wgt id='5007'>0.21346E+02</wgt>
<wgt id='5008'>0.21037E+02</wgt>
<wgt id='5009'>0.21465E+02</wgt>
<wgt id='5010'>0.21152E+02</wgt>
<wgt id='5011'>0.21251E+02</wgt>
<wgt id='5012'>0.21254E+02</wgt>
<wgt id='5013'>0.21108E+02</wgt>
<wgt id='5014'>0.21213E+02</wgt>
<wgt id='5015'>0.21410E+02</wgt>
<wgt id='5016'>0.20853E+02</wgt>
<wgt id='5017'>0.21269E+02</wgt>
<wgt id='5018'>0.21294E+02</wgt>
<wgt id='5019'>0.21267E+02</wgt>
<wgt id='5020'>0.21276E+02</wgt>
<wgt id='5021'>0.21341E+02</wgt>
<wgt id='5022'>0.21241E+02</wgt>
<wgt id='5023'>0.21224E+02</wgt>
<wgt id='5024'>0.21337E+02</wgt>
<wgt id='5025'>0.21293E+02</wgt>
<wgt id='5026'>0.21269E+02</wgt>
<wgt id='5027'>0.21477E+02</wgt>
<wgt id='5028'>0.20945E+02</wgt>
<wgt id='5029'>0.20938E+02</wgt>
<wgt id='5030'>0.21483E+02</wgt>
<wgt id='5031'>0.21062E+02</wgt>
<wgt id='5032'>0.21591E+02</wgt>
<wgt id='5033'>0.21154E+02</wgt>
<wgt id='5034'>0.21389E+02</wgt>
<wgt id='5035'>0.21076E+02</wgt>
<wgt id='5036'>0.21436E+02</wgt>
<wgt id='5037'>0.21182E+02</wgt>
<wgt id='5038'>0.21381E+02</wgt>
<wgt id='5039'>0.21639E+02</wgt>
<wgt id='5040'>0.21092E+02</wgt>
<wgt id='5041'>0.21021E+02</wgt>
<wgt id='5042'>0.21340E+02</wgt>
<wgt id='5043'>0.21609E+02</wgt>
<wgt id='5044'>0.20729E+02</wgt>
<wgt id='5045'>0.21753E+02</wgt>
<wgt id='5046'>0.21019E+02</wgt>
<wgt id='5047'>0.21321E+02</wgt>
<wgt id='5048'>0.21355E+02</wgt>
<wgt id='5049'>0.21311E+02</wgt>
<wgt id='5050'>0.21343E+02</wgt>
<wgt id='5051'>0.21362E+02</wgt>
<wgt id='5052'>0.21272E+02</wgt>
<wgt id='5053'>0.21114E+02</wgt>
<wgt id='5054'>0.21764E+02</wgt>
<wgt id='5055'>0.21139E+02</wgt>
<wgt id='5056'>0.21400E+02</wgt>
<wgt id='5060'>0.20761E+02</wgt>
<wgt id='5070'>0.21737E+02</wgt>
<wgt id='4000'>0.22252E+02</wgt>
<wgt id='4001'>0.22293E+02</wgt>
<wgt id='4002'>0.22351E+02</wgt>
<wgt id='4003'>0.22609E+02</wgt>
<wgt id='4004'>0.21990E+02</wgt>
<wgt id='4005'>0.22375E+02</wgt>
<wgt id='4006'>0.22197E+02</wgt>
<wgt id='4007'>0.22436E+02</wgt>
<wgt id='4008'>0.22115E+02</wgt>
<wgt id='4009'>0.21805E+02</wgt>
<wgt id='4010'>0.22675E+02</wgt>
<wgt id='4011'>0.22586E+02</wgt>
<wgt id='4012'>0.22056E+02</wgt>
<wgt id='4013'>0.21506E+02</wgt>
<wgt id='4014'>0.22672E+02</wgt>
<wgt id='4015'>0.22458E+02</wgt>
<wgt id='4016'>0.22112E+02</wgt>
<wgt id='4017'>0.22026E+02</wgt>
<wgt id='4018'>0.22521E+02</wgt>
<wgt id='4019'>0.22553E+02</wgt>
<wgt id='4020'>0.21916E+02</wgt>
<wgt id='4021'>0.22308E+02</wgt>
<wgt id='4022'>0.22131E+02</wgt>
<wgt id='4023'>0.22146E+02</wgt>
<wgt id='4024'>0.22351E+02</wgt>
<wgt id='4025'>0.22094E+02</wgt>
<wgt id='4026'>0.22391E+02</wgt>
<wgt id='4027'>0.22194E+02</wgt>
<wgt id='4028'>0.22332E+02</wgt>
<wgt id='4029'>0.22132E+02</wgt>
<wgt id='4030'>0.22294E+02</wgt>
<wgt id='4031'>0.22293E+02</wgt>
<wgt id='4032'>0.22199E+02</wgt>
<wgt id='4033'>0.22212E+02</wgt>
<wgt id='4034'>0.22336E+02</wgt>
<wgt id='4035'>0.22448E+02</wgt>
<wgt id='4036'>0.22071E+02</wgt>
<wgt id='4037'>0.22400E+02</wgt>
<wgt id='4038'>0.21984E+02</wgt>
<wgt id='4039'>0.22233E+02</wgt>
<wgt id='4040'>0.22221E+02</wgt>
<wgt id='4041'>0.22368E+02</wgt>
<wgt id='4042'>0.22166E+02</wgt>
<wgt id='4043'>0.22261E+02</wgt>
<wgt id='4044'>0.22211E+02</wgt>
<wgt id='4045'>0.22128E+02</wgt>
<wgt id='4046'>0.22140E+02</wgt>
<wgt id='4047'>0.21949E+02</wgt>
<wgt id='4048'>0.22394E+02</wgt>
<wgt id='4049'>0.22298E+02</wgt>
<wgt id='4050'>0.21798E+02</wgt>
<wgt id='4051'>0.22208E+02</wgt>
<wgt id='4052'>0.22170E+02</wgt>
<wgt id='4053'>0.21667E+02</wgt>
<wgt id='4054'>0.22431E+02</wgt>
<wgt id='4055'>0.22075E+02</wgt>
<wgt id='4056'>0.22414E+02</wgt>
<wgt id='4060'>0.21646E+02</wgt>
<wgt id='4070'>0.22816E+02</wgt>
<wgt id='4080'>0.21341E+02</wgt>
<wgt id='6000'>0.22669E+02</wgt>
<wgt id='6001'>0.22670E+02</wgt>
<wgt id='6002'>0.22667E+02</wgt>
<wgt id='6003'>0.22681E+02</wgt>
<wgt id='6004'>0.22660E+02</wgt>
<wgt id='6005'>0.22740E+02</wgt>
<wgt id='6006'>0.22602E+02</wgt>
<wgt id='6007'>0.22563E+02</wgt>
<wgt id='6008'>0.22787E+02</wgt>
<wgt id='6009'>0.22718E+02</wgt>
<wgt id='6010'>0.22621E+02</wgt>
<wgt id='6011'>0.22711E+02</wgt>
<wgt id='6012'>0.22577E+02</wgt>
<wgt id='6013'>0.22649E+02</wgt>
<wgt id='6014'>0.22704E+02</wgt>
<wgt id='6015'>0.22594E+02</wgt>
<wgt id='6016'>0.22711E+02</wgt>
<wgt id='6017'>0.22565E+02</wgt>
<wgt id='6018'>0.22791E+02</wgt>
<wgt id='6019'>0.22715E+02</wgt>
<wgt id='6020'>0.22629E+02</wgt>
<wgt id='6021'>0.22630E+02</wgt>
<wgt id='6022'>0.22721E+02</wgt>
<wgt id='6023'>0.22533E+02</wgt>
<wgt id='6024'>0.22765E+02</wgt>
<wgt id='6025'>0.22452E+02</wgt>
<wgt id='6026'>0.22865E+02</wgt>
<wgt id='6027'>0.22723E+02</wgt>
<wgt id='6028'>0.22667E+02</wgt>
<wgt id='6029'>0.22769E+02</wgt>
<wgt id='6030'>0.22553E+02</wgt>
<wgt id='6031'>0.22657E+02</wgt>
<wgt id='6032'>0.22674E+02</wgt>
<wgt id='6033'>0.22720E+02</wgt>
<wgt id='6034'>0.22615E+02</wgt>
<wgt id='6035'>0.22663E+02</wgt>
<wgt id='6036'>0.22709E+02</wgt>
<wgt id='6037'>0.22712E+02</wgt>
<wgt id='6038'>0.22661E+02</wgt>
<wgt id='6039'>0.22649E+02</wgt>
<wgt id='6040'>0.22690E+02</wgt>
<wgt id='6041'>0.22608E+02</wgt>
<wgt id='6042'>0.22739E+02</wgt>
<wgt id='6043'>0.22906E+02</wgt>
<wgt id='6044'>0.22530E+02</wgt>
<wgt id='6045'>0.22654E+02</wgt>
<wgt id='6046'>0.22704E+02</wgt>
<wgt id='6047'>0.22660E+02</wgt>
<wgt id='6048'>0.22509E+02</wgt>
<wgt id='6049'>0.22662E+02</wgt>
<wgt id='6050'>0.22660E+02</wgt>
<wgt id='7000'>0.21284E+02</wgt>
<wgt id='7001'>0.21269E+02</wgt>
<wgt id='7002'>0.21304E+02</wgt>
<wgt id='7003'>0.21346E+02</wgt>
<wgt id='7004'>0.21223E+02</wgt>
<wgt id='7005'>0.21329E+02</wgt>
<wgt id='7006'>0.21266E+02</wgt>
<wgt id='7007'>0.21199E+02</wgt>
<wgt id='7008'>0.21369E+02</wgt>
<wgt id='7009'>0.21308E+02</wgt>
<wgt id='7010'>0.21260E+02</wgt>
<wgt id='7011'>0.21119E+02</wgt>
<wgt id='7012'>0.21356E+02</wgt>
<wgt id='7013'>0.21289E+02</wgt>
<wgt id='7014'>0.21278E+02</wgt>
<wgt id='7015'>0.21232E+02</wgt>
<wgt id='7016'>0.21339E+02</wgt>
<wgt id='7017'>0.21288E+02</wgt>
<wgt id='7018'>0.21280E+02</wgt>
<wgt id='7019'>0.21256E+02</wgt>
<wgt id='7020'>0.21322E+02</wgt>
<wgt id='7021'>0.21274E+02</wgt>
<wgt id='7022'>0.21291E+02</wgt>
<wgt id='7023'>0.21509E+02</wgt>
<wgt id='7024'>0.21068E+02</wgt>
<wgt id='7025'>0.21368E+02</wgt>
<wgt id='7026'>0.21079E+02</wgt>
<wgt id='7027'>0.21366E+02</wgt>
<wgt id='7028'>0.21242E+02</wgt>
<wgt id='7029'>0.21206E+02</wgt>
<wgt id='7030'>0.21491E+02</wgt>
<wgt id='7031'>0.21275E+02</wgt>
<wgt id='7032'>0.21305E+02</wgt>
<wgt id='7033'>0.21261E+02</wgt>
<wgt id='7034'>0.21333E+02</wgt>
<wgt id='7035'>0.21312E+02</wgt>
<wgt id='7036'>0.21276E+02</wgt>
<wgt id='7037'>0.21292E+02</wgt>
<wgt id='7038'>0.21274E+02</wgt>
<wgt id='7039'>0.21267E+02</wgt>
<wgt id='7040'>0.21296E+02</wgt>
<wgt id='7041'>0.21235E+02</wgt>
<wgt id='7042'>0.21323E+02</wgt>
<wgt id='7043'>0.21302E+02</wgt>
<wgt id='7044'>0.21177E+02</wgt>
<wgt id='7045'>0.21081E+02</wgt>
<wgt id='7046'>0.21356E+02</wgt>
<wgt id='7047'>0.21306E+02</wgt>
<wgt id='7048'>0.21265E+02</wgt>
<wgt id='7049'>0.21223E+02</wgt>
<wgt id='7050'>0.21263E+02</wgt>
<wgt id='7060'>0.30998E+02</wgt>
<wgt id='8000'>0.21646E+02</wgt>
<wgt id='8001'>0.21640E+02</wgt>
<wgt id='8002'>0.21651E+02</wgt>
<wgt id='8003'>0.21648E+02</wgt>
<wgt id='8004'>0.21645E+02</wgt>
<wgt id='8005'>0.21604E+02</wgt>
<wgt id='8006'>0.21637E+02</wgt>
<wgt id='8007'>0.21634E+02</wgt>
<wgt id='8008'>0.21686E+02</wgt>
<wgt id='8009'>0.21723E+02</wgt>
<wgt id='8010'>0.21640E+02</wgt>
<wgt id='8011'>0.21634E+02</wgt>
<wgt id='8012'>0.21607E+02</wgt>
<wgt id='8013'>0.21633E+02</wgt>
<wgt id='8014'>0.21645E+02</wgt>
<wgt id='8015'>0.21627E+02</wgt>
<wgt id='8016'>0.21654E+02</wgt>
<wgt id='8017'>0.21644E+02</wgt>
<wgt id='8018'>0.21653E+02</wgt>
<wgt id='8019'>0.21680E+02</wgt>
<wgt id='8020'>0.21583E+02</wgt>
<wgt id='8021'>0.21642E+02</wgt>
<wgt id='8022'>0.21533E+02</wgt>
<wgt id='8023'>0.21662E+02</wgt>
<wgt id='8024'>0.21673E+02</wgt>
<wgt id='8025'>0.21704E+02</wgt>
<wgt id='8026'>0.21688E+02</wgt>
<wgt id='8027'>0.21619E+02</wgt>
<wgt id='8028'>0.21667E+02</wgt>
<wgt id='8029'>0.21511E+02</wgt>
<wgt id='8500'>0.22394E+02</wgt>
<wgt id='8501'>0.22338E+02</wgt>
<wgt id='8502'>0.22599E+02</wgt>
<wgt id='8503'>0.22531E+02</wgt>
<wgt id='8504'>0.22333E+02</wgt>
<wgt id='8505'>0.22295E+02</wgt>
<wgt id='8506'>0.22357E+02</wgt>
<wgt id='8507'>0.22468E+02</wgt>
<wgt id='8508'>0.22635E+02</wgt>
<wgt id='8509'>0.22287E+02</wgt>
<wgt id='8510'>0.22674E+02</wgt>
<wgt id='8511'>0.22398E+02</wgt>
<wgt id='8512'>0.22182E+02</wgt>
<wgt id='8513'>0.22405E+02</wgt>
<wgt id='8514'>0.22308E+02</wgt>
<wgt id='8515'>0.22413E+02</wgt>
<wgt id='8516'>0.22452E+02</wgt>
<wgt id='8517'>0.22359E+02</wgt>
<wgt id='8518'>0.22290E+02</wgt>
<wgt id='8519'>0.22267E+02</wgt>
<wgt id='8520'>0.22431E+02</wgt>
<wgt id='8521'>0.22287E+02</wgt>
<wgt id='8522'>0.22410E+02</wgt>
<wgt id='8523'>0.22363E+02</wgt>
<wgt id='8524'>0.22377E+02</wgt>
<wgt id='8525'>0.22395E+02</wgt>
<wgt id='8526'>0.22366E+02</wgt>
<wgt id='8527'>0.22385E+02</wgt>
<wgt id='8528'>0.22348E+02</wgt>
<wgt id='8529'>0.22387E+02</wgt>
<wgt id='8530'>0.22398E+02</wgt>
<wgt id='8531'>0.22387E+02</wgt>
<wgt id='8532'>0.22400E+02</wgt>
<wgt id='8533'>0.22356E+02</wgt>
<wgt id='8534'>0.22410E+02</wgt>
<wgt id='8535'>0.22440E+02</wgt>
<wgt id='8536'>0.22382E+02</wgt>
<wgt id='8537'>0.22405E+02</wgt>
<wgt id='8538'>0.22375E+02</wgt>
<wgt id='8539'>0.22403E+02</wgt>
<wgt id='8540'>0.22400E+02</wgt>
<wgt id='8541'>0.22410E+02</wgt>
<wgt id='8542'>0.22419E+02</wgt>
<wgt id='8543'>0.22375E+02</wgt>
<wgt id='8544'>0.22419E+02</wgt>
<wgt id='8545'>0.22413E+02</wgt>
<wgt id='8546'>0.22411E+02</wgt>
<wgt id='8547'>0.22375E+02</wgt>
<wgt id='8548'>0.22378E+02</wgt>
<wgt id='8549'>0.22392E+02</wgt>
<wgt id='8550'>0.22393E+02</wgt>
<wgt id='8551'>0.22364E+02</wgt>
<wgt id='8552'>0.22394E+02</wgt>
<wgt id='8553'>0.22384E+02</wgt>
<wgt id='8554'>0.22379E+02</wgt>
<wgt id='8555'>0.22397E+02</wgt>
<wgt id='8556'>0.22395E+02</wgt>
<wgt id='8557'>0.22391E+02</wgt>
<wgt id='8558'>0.22427E+02</wgt>
<wgt id='8559'>0.22385E+02</wgt>
<wgt id='8560'>0.22364E+02</wgt>
<wgt id='8561'>0.22393E+02</wgt>
<wgt id='8562'>0.22374E+02</wgt>
<wgt id='8563'>0.22394E+02</wgt>
<wgt id='8564'>0.22388E+02</wgt>
<wgt id='8565'>0.22391E+02</wgt>
<wgt id='8566'>0.22390E+02</wgt>
<wgt id='8567'>0.22388E+02</wgt>
<wgt id='8568'>0.22404E+02</wgt>
<wgt id='8569'>0.22400E+02</wgt>
<wgt id='8570'>0.22391E+02</wgt>
<wgt id='8571'>0.22386E+02</wgt>
<wgt id='8572'>0.22386E+02</wgt>
<wgt id='8573'>0.22390E+02</wgt>
<wgt id='8574'>0.22391E+02</wgt>
<wgt id='8575'>0.22394E+02</wgt>
<wgt id='8576'>0.22392E+02</wgt>
<wgt id='8577'>0.22392E+02</wgt>
<wgt id='8578'>0.22392E+02</wgt>
<wgt id='8579'>0.22406E+02</wgt>
<wgt id='8580'>0.22400E+02</wgt>
<wgt id='8581'>0.22398E+02</wgt>
<wgt id='8582'>0.22382E+02</wgt>
<wgt id='8583'>0.22401E+02</wgt>
<wgt id='8584'>0.22399E+02</wgt>
<wgt id='8585'>0.22397E+02</wgt>
<wgt id='8586'>0.22406E+02</wgt>
<wgt id='8587'>0.22393E+02</wgt>
<wgt id='8588'>0.22391E+02</wgt>
<wgt id='8589'>0.22395E+02</wgt>
<wgt id='8590'>0.22394E+02</wgt>
<wgt id='8591'>0.22390E+02</wgt>
<wgt id='8592'>0.22394E+02</wgt>
<wgt id='8593'>0.22388E+02</wgt>
<wgt id='8594'>0.22394E+02</wgt>
<wgt id='8595'>0.22395E+02</wgt>
<wgt id='8596'>0.22391E+02</wgt>
<wgt id='8597'>0.22396E+02</wgt>
<wgt id='8598'>0.22397E+02</wgt>
<wgt id='8599'>0.22397E+02</wgt>
<wgt id='8600'>0.22395E+02</wgt>
<wgt id='8601'>0.21966E+02</wgt>
<wgt id='8602'>0.22777E+02</wgt>
<wgt id='9000'>0.21326E+02</wgt>
<wgt id='9001'>0.21360E+02</wgt>
<wgt id='9002'>0.21413E+02</wgt>
<wgt id='9003'>0.21162E+02</wgt>
<wgt id='9004'>0.21305E+02</wgt>
<wgt id='9005'>0.21441E+02</wgt>
<wgt id='9006'>0.21285E+02</wgt>
<wgt id='9007'>0.21300E+02</wgt>
<wgt id='9008'>0.21361E+02</wgt>
<wgt id='9009'>0.21323E+02</wgt>
<wgt id='9010'>0.21295E+02</wgt>
<wgt id='9011'>0.21541E+02</wgt>
<wgt id='9012'>0.21116E+02</wgt>
<wgt id='9013'>0.21106E+02</wgt>
<wgt id='9014'>0.21106E+02</wgt>
<wgt id='9015'>0.21265E+02</wgt>
<wgt id='9016'>0.21407E+02</wgt>
<wgt id='9017'>0.21321E+02</wgt>
<wgt id='9018'>0.21342E+02</wgt>
<wgt id='9019'>0.21322E+02</wgt>
<wgt id='9020'>0.21497E+02</wgt>
<wgt id='9021'>0.21309E+02</wgt>
<wgt id='9022'>0.21339E+02</wgt>
<wgt id='9023'>0.21323E+02</wgt>
<wgt id='9024'>0.21292E+02</wgt>
<wgt id='9025'>0.21356E+02</wgt>
<wgt id='9026'>0.21346E+02</wgt>
<wgt id='9027'>0.21298E+02</wgt>
<wgt id='9028'>0.21340E+02</wgt>
<wgt id='9029'>0.21345E+02</wgt>
<wgt id='9030'>0.21334E+02</wgt>
<wgt id='9031'>0.21327E+02</wgt>
<wgt id='9032'>0.21336E+02</wgt>
<wgt id='9033'>0.21350E+02</wgt>
<wgt id='9034'>0.21309E+02</wgt>
<wgt id='9035'>0.21357E+02</wgt>
<wgt id='9036'>0.21325E+02</wgt>
<wgt id='9037'>0.21347E+02</wgt>
<wgt id='9038'>0.21327E+02</wgt>
<wgt id='9039'>0.21324E+02</wgt>
<wgt id='9040'>0.21299E+02</wgt>
<wgt id='9041'>0.21318E+02</wgt>
<wgt id='9042'>0.21320E+02</wgt>
<wgt id='9043'>0.21312E+02</wgt>
<wgt id='9044'>0.21329E+02</wgt>
<wgt id='9045'>0.21326E+02</wgt>
<wgt id='9046'>0.21295E+02</wgt>
<wgt id='9047'>0.21316E+02</wgt>
<wgt id='9048'>0.21334E+02</wgt>
<wgt id='9049'>0.21316E+02</wgt>
<wgt id='9050'>0.21333E+02</wgt>
<wgt id='9051'>0.21331E+02</wgt>
<wgt id='9052'>0.21327E+02</wgt>
<wgt id='9053'>0.21323E+02</wgt>
<wgt id='9054'>0.21316E+02</wgt>
<wgt id='9055'>0.21323E+02</wgt>
<wgt id='9056'>0.21349E+02</wgt>
<wgt id='9057'>0.21329E+02</wgt>
<wgt id='9058'>0.21307E+02</wgt>
<wgt id='9059'>0.21314E+02</wgt>
<wgt id='9060'>0.21315E+02</wgt>
<wgt id='9061'>0.21333E+02</wgt>
<wgt id='9062'>0.21328E+02</wgt>
<wgt id='9063'>0.21336E+02</wgt>
<wgt id='9064'>0.21316E+02</wgt>
<wgt id='9065'>0.21327E+02</wgt>
<wgt id='9066'>0.21332E+02</wgt>
<wgt id='9067'>0.21338E+02</wgt>
<wgt id='9068'>0.21332E+02</wgt>
<wgt id='9069'>0.21335E+02</wgt>
<wgt id='9070'>0.21321E+02</wgt>
<wgt id='9071'>0.21343E+02</wgt>
<wgt id='9072'>0.21340E+02</wgt>
<wgt id='9073'>0.21318E+02</wgt>
<wgt id='9074'>0.21327E+02</wgt>
<wgt id='9075'>0.21326E+02</wgt>
<wgt id='9076'>0.21322E+02</wgt>
<wgt id='9077'>0.21329E+02</wgt>
<wgt id='9078'>0.21322E+02</wgt>
<wgt id='9079'>0.21327E+02</wgt>
<wgt id='9080'>0.21342E+02</wgt>
<wgt id='9081'>0.21324E+02</wgt>
<wgt id='9082'>0.21333E+02</wgt>
<wgt id='9083'>0.21317E+02</wgt>
<wgt id='9084'>0.21321E+02</wgt>
<wgt id='9085'>0.21322E+02</wgt>
<wgt id='9086'>0.21331E+02</wgt>
<wgt id='9087'>0.21314E+02</wgt>
<wgt id='9088'>0.21321E+02</wgt>
<wgt id='9089'>0.21320E+02</wgt>
<wgt id='9090'>0.21328E+02</wgt>
<wgt id='9091'>0.21321E+02</wgt>
<wgt id='9092'>0.21326E+02</wgt>
<wgt id='9093'>0.21323E+02</wgt>
<wgt id='9094'>0.21322E+02</wgt>
<wgt id='9095'>0.21328E+02</wgt>
<wgt id='9096'>0.21323E+02</wgt>
<wgt id='9097'>0.21327E+02</wgt>
<wgt id='9098'>0.21325E+02</wgt>
<wgt id='9099'>0.21321E+02</wgt>
<wgt id='9100'>0.21326E+02</wgt>
<wgt id='9101'>0.20985E+02</wgt>
<wgt id='9102'>0.21600E+02</wgt>
<wgt id='10000'>0.22391E+02</wgt>
<wgt id='10001'>0.22492E+02</wgt>
<wgt id='10002'>0.22396E+02</wgt>
<wgt id='10003'>0.22405E+02</wgt>
<wgt id='10004'>0.22432E+02</wgt>
<wgt id='10005'>0.22922E+02</wgt>
<wgt id='10006'>0.22389E+02</wgt>
<wgt id='10007'>0.22383E+02</wgt>
<wgt id='10008'>0.22432E+02</wgt>
<wgt id='10009'>0.22344E+02</wgt>
<wgt id='10010'>0.22406E+02</wgt>
<wgt id='10011'>0.22346E+02</wgt>
<wgt id='10012'>0.22356E+02</wgt>
<wgt id='10013'>0.22388E+02</wgt>
<wgt id='10014'>0.22395E+02</wgt>
<wgt id='10015'>0.22418E+02</wgt>
<wgt id='10016'>0.22388E+02</wgt>
<wgt id='10017'>0.22311E+02</wgt>
<wgt id='10018'>0.22417E+02</wgt>
<wgt id='10019'>0.22301E+02</wgt>
<wgt id='10020'>0.22389E+02</wgt>
<wgt id='10021'>0.22399E+02</wgt>
<wgt id='10022'>0.22324E+02</wgt>
<wgt id='10023'>0.22408E+02</wgt>
<wgt id='10024'>0.22396E+02</wgt>
<wgt id='10025'>0.22377E+02</wgt>
<wgt id='10026'>0.22397E+02</wgt>
<wgt id='10027'>0.22393E+02</wgt>
<wgt id='10028'>0.22484E+02</wgt>
<wgt id='10029'>0.22409E+02</wgt>
<wgt id='10030'>0.22378E+02</wgt>
<wgt id='10031'>0.21966E+02</wgt>
<wgt id='10032'>0.22777E+02</wgt>
<wgt id='11000'>0.21323E+02</wgt>
<wgt id='11001'>0.21254E+02</wgt>
<wgt id='11002'>0.21375E+02</wgt>
<wgt id='11003'>0.21303E+02</wgt>
<wgt id='11004'>0.21346E+02</wgt>
<wgt id='11005'>0.21024E+02</wgt>
<wgt id='11006'>0.21320E+02</wgt>
<wgt id='11007'>0.21292E+02</wgt>
<wgt id='11008'>0.21288E+02</wgt>
<wgt id='11009'>0.21252E+02</wgt>
<wgt id='11010'>0.21335E+02</wgt>
<wgt id='11011'>0.21214E+02</wgt>
<wgt id='11012'>0.21332E+02</wgt>
<wgt id='11013'>0.21392E+02</wgt>
<wgt id='11014'>0.21270E+02</wgt>
<wgt id='11015'>0.21292E+02</wgt>
<wgt id='11016'>0.21306E+02</wgt>
<wgt id='11017'>0.21482E+02</wgt>
<wgt id='11018'>0.21331E+02</wgt>
<wgt id='11019'>0.21323E+02</wgt>
<wgt id='11020'>0.21332E+02</wgt>
<wgt id='11021'>0.21382E+02</wgt>
<wgt id='11022'>0.21660E+02</wgt>
<wgt id='11023'>0.21315E+02</wgt>
<wgt id='11024'>0.21280E+02</wgt>
<wgt id='11025'>0.21275E+02</wgt>
<wgt id='11026'>0.21321E+02</wgt>
<wgt id='11027'>0.21320E+02</wgt>
<wgt id='11028'>0.21304E+02</wgt>
<wgt id='11029'>0.21271E+02</wgt>
<wgt id='11030'>0.21328E+02</wgt>
<wgt id='11031'>0.20985E+02</wgt>
<wgt id='11032'>0.21600E+02</wgt>
<wgt id='12000'>0.23036E+02</wgt>
<wgt id='12001'>0.23009E+02</wgt>
<wgt id='12002'>0.23063E+02</wgt>
<wgt id='12003'>0.23080E+02</wgt>
<wgt id='12004'>0.22993E+02</wgt>
<wgt id='12005'>0.23079E+02</wgt>
<wgt id='12006'>0.22993E+02</wgt>
<wgt id='12007'>0.23097E+02</wgt>
<wgt id='12008'>0.22978E+02</wgt>
<wgt id='12009'>0.23066E+02</wgt>
<wgt id='12010'>0.23006E+02</wgt>
<wgt id='12011'>0.22977E+02</wgt>
<wgt id='12012'>0.23102E+02</wgt>
<wgt id='12013'>0.22940E+02</wgt>
<wgt id='12014'>0.23134E+02</wgt>
<wgt id='12015'>0.23072E+02</wgt>
<wgt id='12016'>0.22965E+02</wgt>
<wgt id='12017'>0.23126E+02</wgt>
<wgt id='12018'>0.22946E+02</wgt>
<wgt id='12019'>0.22955E+02</wgt>
<wgt id='12020'>0.23110E+02</wgt>
<wgt id='12021'>0.23090E+02</wgt>
<wgt id='12022'>0.22960E+02</wgt>
<wgt id='12023'>0.22924E+02</wgt>
<wgt id='12024'>0.23040E+02</wgt>
<wgt id='12025'>0.23078E+02</wgt>
<wgt id='12026'>0.23031E+02</wgt>
<wgt id='12027'>0.23084E+02</wgt>
<wgt id='12028'>0.23003E+02</wgt>
<wgt id='12050'>0.23036E+02</wgt>
<wgt id='12051'>0.23030E+02</wgt>
<wgt id='12052'>0.23022E+02</wgt>
<wgt id='12053'>0.23024E+02</wgt>
<wgt id='12054'>0.23027E+02</wgt>
<wgt id='12055'>0.23074E+02</wgt>
<wgt id='12056'>0.22941E+02</wgt>
<wgt id='12057'>0.22968E+02</wgt>
<wgt id='12058'>0.23102E+02</wgt>
<wgt id='12059'>0.23022E+02</wgt>
<wgt id='12060'>0.23054E+02</wgt>
<wgt id='12061'>0.23000E+02</wgt>
<wgt id='12062'>0.23067E+02</wgt>
<wgt id='12063'>0.22864E+02</wgt>
<wgt id='13000'>0.21410E+02</wgt>
<wgt id='13001'>0.21393E+02</wgt>
<wgt id='13002'>0.21422E+02</wgt>
<wgt id='13003'>0.21424E+02</wgt>
<wgt id='13004'>0.21391E+02</wgt>
<wgt id='13005'>0.21458E+02</wgt>
<wgt id='13006'>0.21357E+02</wgt>
<wgt id='13007'>0.21499E+02</wgt>
<wgt id='13008'>0.21318E+02</wgt>
<wgt id='13009'>0.21390E+02</wgt>
<wgt id='13010'>0.21426E+02</wgt>
<wgt id='13011'>0.21467E+02</wgt>
<wgt id='13012'>0.21348E+02</wgt>
<wgt id='13013'>0.21336E+02</wgt>
<wgt id='13014'>0.21478E+02</wgt>
<wgt id='13015'>0.21378E+02</wgt>
<wgt id='13016'>0.21409E+02</wgt>
<wgt id='13017'>0.21382E+02</wgt>
<wgt id='13018'>0.21429E+02</wgt>
<wgt id='13019'>0.21347E+02</wgt>
<wgt id='13020'>0.21466E+02</wgt>
<wgt id='13021'>0.21291E+02</wgt>
<wgt id='13022'>0.21497E+02</wgt>
<wgt id='13023'>0.21411E+02</wgt>
<wgt id='13024'>0.21409E+02</wgt>
<wgt id='13025'>0.21332E+02</wgt>
<wgt id='13026'>0.21448E+02</wgt>
<wgt id='13027'>0.21407E+02</wgt>
<wgt id='13028'>0.21425E+02</wgt>
<wgt id='13050'>0.21410E+02</wgt>
<wgt id='13051'>0.21431E+02</wgt>
<wgt id='13052'>0.21297E+02</wgt>
<wgt id='13053'>0.21419E+02</wgt>
<wgt id='13054'>0.21385E+02</wgt>
<wgt id='13055'>0.21374E+02</wgt>
<wgt id='13056'>0.21371E+02</wgt>
<wgt id='13057'>0.21349E+02</wgt>
<wgt id='13058'>0.21503E+02</wgt>
<wgt id='13059'>0.21391E+02</wgt>
<wgt id='13060'>0.21388E+02</wgt>
<wgt id='13061'>0.21373E+02</wgt>
<wgt id='13062'>0.21529E+02</wgt>
<wgt id='13063'>0.21299E+02</wgt>
<wgt id='14000'>0.22174E+02</wgt>
<wgt id='14001'>0.22171E+02</wgt>
<wgt id='14002'>0.22167E+02</wgt>
<wgt id='14003'>0.22163E+02</wgt>
<wgt id='14004'>0.22159E+02</wgt>
<wgt id='14005'>0.22156E+02</wgt>
<wgt id='14006'>0.22152E+02</wgt>
<wgt id='14007'>0.22148E+02</wgt>
<wgt id='14008'>0.22144E+02</wgt>
<wgt id='14009'>0.22141E+02</wgt>
<wgt id='14010'>0.22137E+02</wgt>
<wgt id='14011'>0.22133E+02</wgt>
<wgt id='14012'>0.22129E+02</wgt>
<wgt id='14013'>0.22126E+02</wgt>
<wgt id='14014'>0.22122E+02</wgt>
<wgt id='14015'>0.22118E+02</wgt>
<wgt id='14016'>0.22115E+02</wgt>
<wgt id='14017'>0.22111E+02</wgt>
<wgt id='14018'>0.22107E+02</wgt>
<wgt id='14019'>0.22103E+02</wgt>
<wgt id='14020'>0.22099E+02</wgt>
<wgt id='14021'>0.22096E+02</wgt>
<wgt id='14022'>0.22092E+02</wgt>
<wgt id='14023'>0.22088E+02</wgt>
<wgt id='14024'>0.22085E+02</wgt>
<wgt id='14025'>0.22081E+02</wgt>
<wgt id='14026'>0.22077E+02</wgt>
<wgt id='14027'>0.22073E+02</wgt>
<wgt id='14028'>0.22070E+02</wgt>
<wgt id='14029'>0.22066E+02</wgt>
<wgt id='14030'>0.22062E+02</wgt>
<wgt id='15000'>0.21084E+02</wgt>
<wgt id='15001'>0.21118E+02</wgt>
<wgt id='15002'>0.21171E+02</wgt>
<wgt id='15003'>0.20923E+02</wgt>
<wgt id='15004'>0.21064E+02</wgt>
<wgt id='15005'>0.21199E+02</wgt>
<wgt id='15006'>0.21044E+02</wgt>
<wgt id='15007'>0.21058E+02</wgt>
<wgt id='15008'>0.21118E+02</wgt>
<wgt id='15009'>0.21082E+02</wgt>
<wgt id='15010'>0.21054E+02</wgt>
<wgt id='15011'>0.21297E+02</wgt>
<wgt id='15012'>0.20877E+02</wgt>
<wgt id='15013'>0.20868E+02</wgt>
<wgt id='15014'>0.20867E+02</wgt>
<wgt id='15015'>0.21024E+02</wgt>
<wgt id='15016'>0.21164E+02</wgt>
<wgt id='15017'>0.21079E+02</wgt>
<wgt id='15018'>0.21101E+02</wgt>
<wgt id='15019'>0.21081E+02</wgt>
<wgt id='15020'>0.21253E+02</wgt>
<wgt id='15021'>0.21067E+02</wgt>
<wgt id='15022'>0.21098E+02</wgt>
<wgt id='15023'>0.21080E+02</wgt>
<wgt id='15024'>0.21050E+02</wgt>
<wgt id='15025'>0.21115E+02</wgt>
<wgt id='15026'>0.21104E+02</wgt>
<wgt id='15027'>0.21057E+02</wgt>
<wgt id='15028'>0.21098E+02</wgt>
<wgt id='15029'>0.21104E+02</wgt>
<wgt id='15030'>0.21092E+02</wgt>
<wgt id='15031'>0.21086E+02</wgt>
<wgt id='15032'>0.21095E+02</wgt>
<wgt id='15033'>0.21108E+02</wgt>
<wgt id='15034'>0.21068E+02</wgt>
<wgt id='15035'>0.21116E+02</wgt>
<wgt id='15036'>0.21083E+02</wgt>
<wgt id='15037'>0.21106E+02</wgt>
<wgt id='15038'>0.21085E+02</wgt>
<wgt id='15039'>0.21082E+02</wgt>
<wgt id='15040'>0.21058E+02</wgt>
<wgt id='15041'>0.21077E+02</wgt>
<wgt id='15042'>0.21079E+02</wgt>
<wgt id='15043'>0.21070E+02</wgt>
<wgt id='15044'>0.21088E+02</wgt>
<wgt id='15045'>0.21084E+02</wgt>
<wgt id='15046'>0.21054E+02</wgt>
<wgt id='15047'>0.21074E+02</wgt>
<wgt id='15048'>0.21093E+02</wgt>
<wgt id='15049'>0.21074E+02</wgt>
<wgt id='15050'>0.21092E+02</wgt>
<wgt id='15051'>0.21090E+02</wgt>
<wgt id='15052'>0.21085E+02</wgt>
<wgt id='15053'>0.21081E+02</wgt>
<wgt id='15054'>0.21075E+02</wgt>
<wgt id='15055'>0.21081E+02</wgt>
<wgt id='15056'>0.21108E+02</wgt>
<wgt id='15057'>0.21087E+02</wgt>
<wgt id='15058'>0.21066E+02</wgt>
<wgt id='15059'>0.21072E+02</wgt>
<wgt id='15060'>0.21073E+02</wgt>
<wgt id='15061'>0.21091E+02</wgt>
<wgt id='15062'>0.21086E+02</wgt>
<wgt id='15063'>0.21094E+02</wgt>
<wgt id='15064'>0.21074E+02</wgt>
<wgt id='15065'>0.21085E+02</wgt>
<wgt id='15066'>0.21090E+02</wgt>
<wgt id='15067'>0.21096E+02</wgt>
<wgt id='15068'>0.21091E+02</wgt>
<wgt id='15069'>0.21094E+02</wgt>
<wgt id='15070'>0.21080E+02</wgt>
<wgt id='15071'>0.21101E+02</wgt>
<wgt id='15072'>0.21099E+02</wgt>
<wgt id='15073'>0.21077E+02</wgt>
<wgt id='15074'>0.21086E+02</wgt>
<wgt id='15075'>0.21085E+02</wgt>
<wgt id='15076'>0.21080E+02</wgt>
<wgt id='15077'>0.21087E+02</wgt>
<wgt id='15078'>0.21081E+02</wgt>
<wgt id='15079'>0.21085E+02</wgt>
<wgt id='15080'>0.21101E+02</wgt>
<wgt id='15081'>0.21083E+02</wgt>
<wgt id='15082'>0.21092E+02</wgt>
<wgt id='15083'>0.21076E+02</wgt>
<wgt id='15084'>0.21080E+02</wgt>
<wgt id='15085'>0.21081E+02</wgt>
<wgt id='15086'>0.21090E+02</wgt>
<wgt id='15087'>0.21072E+02</wgt>
<wgt id='15088'>0.21079E+02</wgt>
<wgt id='15089'>0.21079E+02</wgt>
<wgt id='15090'>0.21087E+02</wgt>
<wgt id='15091'>0.21080E+02</wgt>
<wgt id='15092'>0.21085E+02</wgt>
<wgt id='15093'>0.21081E+02</wgt>
<wgt id='15094'>0.21081E+02</wgt>
<wgt id='15095'>0.21087E+02</wgt>
<wgt id='15096'>0.21082E+02</wgt>
<wgt id='15097'>0.21086E+02</wgt>
<wgt id='15098'>0.21083E+02</wgt>
<wgt id='15099'>0.21080E+02</wgt>
<wgt id='15100'>0.21084E+02</wgt>
<wgt id='15101'>0.21084E+02</wgt>
<wgt id='15102'>0.21083E+02</wgt>
<wgt id='15103'>0.21085E+02</wgt>
<wgt id='15104'>0.21085E+02</wgt>
<wgt id='15105'>0.21085E+02</wgt>
<wgt id='15106'>0.21084E+02</wgt>
<wgt id='15107'>0.21083E+02</wgt>
<wgt id='1500'>0.22265E+02</wgt>
<wgt id='1501'>0.20671E+02</wgt>
<wgt id='1502'>0.22410E+02</wgt>
<wgt id='1503'>0.22230E+02</wgt>
<wgt id='1504'>0.21863E+02</wgt>
<wgt id='1505'>0.19966E+02</wgt>
<wgt id='1506'>0.22173E+02</wgt>
<wgt id='1507'>0.22640E+02</wgt>
<wgt id='1508'>0.22126E+02</wgt>
<wgt id='1509'>0.22233E+02</wgt>
<wgt id='1510'>0.21878E+02</wgt>
<wgt id='1511'>0.21836E+02</wgt>
<wgt id='1512'>0.22564E+02</wgt>
<wgt id='1513'>0.22456E+02</wgt>
<wgt id='1514'>0.21859E+02</wgt>
<wgt id='1515'>0.22280E+02</wgt>
<wgt id='1516'>0.22730E+02</wgt>
<wgt id='1517'>0.21810E+02</wgt>
<wgt id='1518'>0.22130E+02</wgt>
<wgt id='1519'>0.22443E+02</wgt>
<wgt id='1520'>0.22661E+02</wgt>
<wgt id='1521'>0.22312E+02</wgt>
<wgt id='1522'>0.22270E+02</wgt>
<wgt id='1523'>0.23855E+02</wgt>
<wgt id='1524'>0.22110E+02</wgt>
<wgt id='1525'>0.22509E+02</wgt>
<wgt id='1526'>0.21850E+02</wgt>
<wgt id='1527'>0.22060E+02</wgt>
<wgt id='1528'>0.22069E+02</wgt>
<wgt id='1529'>0.21979E+02</wgt>
<wgt id='1530'>0.22658E+02</wgt>
<wgt id='1531'>0.22153E+02</wgt>
<wgt id='1532'>0.21724E+02</wgt>
<wgt id='1533'>0.22767E+02</wgt>
<wgt id='1534'>0.22376E+02</wgt>
<wgt id='1535'>0.22922E+02</wgt>
<wgt id='1536'>0.22924E+02</wgt>
<wgt id='1537'>0.22402E+02</wgt>
<wgt id='1538'>0.22112E+02</wgt>
<wgt id='1539'>0.21503E+02</wgt>
<wgt id='1540'>0.22519E+02</wgt>
<wgt id='1541'>0.22272E+02</wgt>
<wgt id='1542'>0.22515E+02</wgt>
<wgt id='1543'>0.22432E+02</wgt>
<wgt id='1544'>0.22088E+02</wgt>
<wgt id='1545'>0.22892E+02</wgt>
<wgt id='1546'>0.22525E+02</wgt>
<wgt id='1547'>0.21893E+02</wgt>
<wgt id='1548'>0.21829E+02</wgt>
<wgt id='1549'>0.22566E+02</wgt>
<wgt id='1550'>0.22344E+02</wgt>
<wgt id='1551'>0.22231E+02</wgt>
<wgt id='1552'>0.22277E+02</wgt>
<wgt id='1553'>0.22659E+02</wgt>
<wgt id='1554'>0.22020E+02</wgt>
<wgt id='1555'>0.22324E+02</wgt>
<wgt id='1556'>0.21676E+02</wgt>
<wgt id='1557'>0.23129E+02</wgt>
<wgt id='1558'>0.22076E+02</wgt>
<wgt id='1559'>0.22576E+02</wgt>
<wgt id='1560'>0.22262E+02</wgt>
<wgt id='1561'>0.22506E+02</wgt>
<wgt id='1562'>0.22412E+02</wgt>
<wgt id='1563'>0.22416E+02</wgt>
<wgt id='1564'>0.22052E+02</wgt>
<wgt id='1565'>0.22409E+02</wgt>
<wgt id='1566'>0.22295E+02</wgt>
<wgt id='1567'>0.23395E+02</wgt>
<wgt id='1568'>0.22018E+02</wgt>
<wgt id='1569'>0.21681E+02</wgt>
<wgt id='1570'>0.22156E+02</wgt>
<wgt id='1571'>0.22886E+02</wgt>
<wgt id='1572'>0.22085E+02</wgt>
<wgt id='1573'>0.20791E+02</wgt>
<wgt id='1574'>0.22358E+02</wgt>
<wgt id='1575'>0.22134E+02</wgt>
<wgt id='1576'>0.21693E+02</wgt>
<wgt id='1577'>0.22355E+02</wgt>
<wgt id='1578'>0.22853E+02</wgt>
<wgt id='1579'>0.22221E+02</wgt>
<wgt id='1580'>0.22405E+02</wgt>
<wgt id='1581'>0.22515E+02</wgt>
<wgt id='1582'>0.22036E+02</wgt>
<wgt id='1583'>0.22268E+02</wgt>
<wgt id='1584'>0.22431E+02</wgt>
<wgt id='1585'>0.21714E+02</wgt>
<wgt id='1586'>0.22151E+02</wgt>
<wgt id='1587'>0.22280E+02</wgt>
<wgt id='1588'>0.22284E+02</wgt>
<wgt id='1589'>0.22598E+02</wgt>
<wgt id='1590'>0.22116E+02</wgt>
<wgt id='1591'>0.21655E+02</wgt>
<wgt id='1592'>0.22792E+02</wgt>
<wgt id='1593'>0.22134E+02</wgt>
<wgt id='1594'>0.22858E+02</wgt>
<wgt id='1595'>0.21915E+02</wgt>
<wgt id='1596'>0.22513E+02</wgt>
<wgt id='1597'>0.22409E+02</wgt>
<wgt id='1598'>0.23284E+02</wgt>
<wgt id='1599'>0.22779E+02</wgt>
<wgt id='1600'>0.22082E+02</wgt>
<wgt id='1601'>0.21912E+02</wgt>
<wgt id='1602'>0.22416E+02</wgt>
<wgt id='1700'>0.21396E+02</wgt>
<wgt id='1800'>0.25026E+02</wgt>
<wgt id='1850'>0.29864E+02</wgt>
<wgt id='1900'>0.24752E+02</wgt>
<wgt id='1950'>0.28759E+02</wgt>
</rwgt>
</event>
<event>
      4   9999  2.16956E+01  6.84245E+01 -1.00000E+00  1.29925E-01
       4    -1     0     0   502     0  0.000000000E+00  0.000000000E+00  1.161320123E+02  1.161320123E+02  0.000000000E+00  0.00000E+00  9.000E+00
      21    -1     0     0   501   502  0.000000000E+00  0.000000000E+00 -4.819142787E+02  4.819142787E+02  0.000000000E+00  0.00000E+00  9.000E+00
      25     1     1     2     0     0  2.727862697E+01 -6.275182944E+01 -4.600207105E+02  4.815868563E+02  1.249997220E+02  0.00000E+00  9.000E+00
       4     1     1     2   501     0 -2.727862697E+01  6.275182944E+01  9.423844409E+01  1.164594347E+02  1.348699152E-06  0.00000E+00  9.000E+00
#rwgt            2          20  0.13473656321994779                1        2342           0
<rwgt>
<wgt id='1001'>0.21696E+02</wgt>
<wgt id='1002'>0.21703E+02</wgt>
<wgt id='1003'>0.21364E+02</wgt>
<wgt id='1004'>0.16381E+02</wgt>
<wgt id='1005'>0.16386E+02</wgt>
<wgt id='1006'>0.16130E+02</wgt>
<wgt id='1007'>0.29632E+02</wgt>
<wgt id='1008'>0.29642E+02</wgt>
<wgt id='1009'>0.29180E+02</wgt>
<wgt id='2000'>0.21696E+02</wgt>
<wgt id='2001'>0.21643E+02</wgt>
<wgt id='2002'>0.21685E+02</wgt>
<wgt id='2003'>0.21716E+02</wgt>
<wgt id='2004'>0.21723E+02</wgt>
<wgt id='2005'>0.21638E+02</wgt>
<wgt id='2006'>0.21654E+02</wgt>
<wgt id='2007'>0.21687E+02</wgt>
<wgt id='2008'>0.21656E+02</wgt>
<wgt id='2009'>0.21624E+02</wgt>
<wgt id='2010'>0.21768E+02</wgt>
<wgt id='2011'>0.21745E+02</wgt>
<wgt id='2012'>0.21684E+02</wgt>
<wgt id='2013'>0.21782E+02</wgt>
<wgt id='2014'>0.21606E+02</wgt>
<wgt id='2015'>0.21625E+02</wgt>
<wgt id='2016'>0.21549E+02</wgt>
<wgt id='2017'>0.21761E+02</wgt>
<wgt id='2018'>0.21815E+02</wgt>
<wgt id='2019'>0.21692E+02</wgt>
<wgt id='2020'>0.21779E+02</wgt>
<wgt id='2021'>0.21512E+02</wgt>
<wgt id='2022'>0.21661E+02</wgt>
<wgt id='2023'>0.21884E+02</wgt>
<wgt id='2024'>0.21599E+02</wgt>
<wgt id='2025'>0.21604E+02</wgt>
<wgt id='2026'>0.21944E+02</wgt>
<wgt id='2027'>0.21667E+02</wgt>
<wgt id='2028'>0.21676E+02</wgt>
<wgt id='2029'>0.21849E+02</wgt>
<wgt id='2030'>0.21618E+02</wgt>
<wgt id='2031'>0.21613E+02</wgt>
<wgt id='2032'>0.21653E+02</wgt>
<wgt id='2033'>0.21671E+02</wgt>
<wgt id='2034'>0.21764E+02</wgt>
<wgt id='2035'>0.21641E+02</wgt>
<wgt id='2036'>0.21671E+02</wgt>
<wgt id='2037'>0.21811E+02</wgt>
<wgt id='2038'>0.21630E+02</wgt>
<wgt id='2039'>0.21712E+02</wgt>
<wgt id='2040'>0.21676E+02</wgt>
<wgt id='2041'>0.21660E+02</wgt>
<wgt id='2042'>0.21695E+02</wgt>
<wgt id='2043'>0.21678E+02</wgt>
<wgt id='2044'>0.21676E+02</wgt>
<wgt id='2045'>0.21578E+02</wgt>
<wgt id='2046'>0.21676E+02</wgt>
<wgt id='2047'>0.21793E+02</wgt>
<wgt id='2048'>0.21581E+02</wgt>
<wgt id='2049'>0.21757E+02</wgt>
<wgt id='2050'>0.21657E+02</wgt>
<wgt id='2051'>0.21652E+02</wgt>
<wgt id='2052'>0.21754E+02</wgt>
<wgt id='2053'>0.21695E+02</wgt>
<wgt id='2054'>0.21702E+02</wgt>
<wgt id='2055'>0.21702E+02</wgt>
<wgt id='2056'>0.21727E+02</wgt>
<wgt id='2057'>0.21634E+02</wgt>
<wgt id='2058'>0.21595E+02</wgt>
<wgt id='2059'>0.21718E+02</wgt>
<wgt id='2060'>0.21671E+02</wgt>
<wgt id='2061'>0.21764E+02</wgt>
<wgt id='2062'>0.21687E+02</wgt>
<wgt id='2063'>0.21747E+02</wgt>
<wgt id='2064'>0.21741E+02</wgt>
<wgt id='2065'>0.21662E+02</wgt>
<wgt id='2066'>0.21699E+02</wgt>
<wgt id='2067'>0.21737E+02</wgt>
<wgt id='2068'>0.21663E+02</wgt>
<wgt id='2069'>0.21655E+02</wgt>
<wgt id='2070'>0.21721E+02</wgt>
<wgt id='2071'>0.21786E+02</wgt>
<wgt id='2072'>0.21649E+02</wgt>
<wgt id='2073'>0.21646E+02</wgt>
<wgt id='2074'>0.21711E+02</wgt>
<wgt id='2075'>0.21706E+02</wgt>
<wgt id='2076'>0.21691E+02</wgt>
<wgt id='2077'>0.21763E+02</wgt>
<wgt id='2078'>0.21667E+02</wgt>
<wgt id='2079'>0.21676E+02</wgt>
<wgt id='2080'>0.21691E+02</wgt>
<wgt id='2081'>0.21679E+02</wgt>
<wgt id='2082'>0.21690E+02</wgt>
<wgt id='2083'>0.21701E+02</wgt>
<wgt id='2084'>0.21732E+02</wgt>
<wgt id='2085'>0.21711E+02</wgt>
<wgt id='2086'>0.21664E+02</wgt>
<wgt id='2087'>0.21685E+02</wgt>
<wgt id='2088'>0.21690E+02</wgt>
<wgt id='2089'>0.21717E+02</wgt>
<wgt id='2090'>0.21720E+02</wgt>
<wgt id='2091'>0.21647E+02</wgt>
<wgt id='2092'>0.21713E+02</wgt>
<wgt id='2093'>0.21681E+02</wgt>
<wgt id='2094'>0.21726E+02</wgt>
<wgt id='2095'>0.21702E+02</wgt>
<wgt id='2096'>0.21708E+02</wgt>
<wgt id='2097'>0.21664E+02</wgt>
<wgt id='2098'>0.21686E+02</wgt>
<wgt id='2099'>0.21695E+02</wgt>
<wgt id='2100'>0.21714E+02</wgt>
<wgt id='2101'>0.20205E+02</wgt>
<wgt id='2102'>0.23209E+02</wgt>
<wgt id='2104'>0.14823E+02</wgt>
<wgt id='2105'>0.16063E+02</wgt>
<wgt id='2106'>0.17394E+02</wgt>
<wgt id='2107'>0.18723E+02</wgt>
<wgt id='2108'>0.20921E+02</wgt>
<wgt id='2109'>0.22493E+02</wgt>
<wgt id='2110'>0.24827E+02</wgt>
<wgt id='2111'>0.26556E+02</wgt>
<wgt id='3000'>0.21963E+02</wgt>
<wgt id='3001'>0.22007E+02</wgt>
<wgt id='3002'>0.21905E+02</wgt>
<wgt id='3003'>0.22017E+02</wgt>
<wgt id='3004'>0.21985E+02</wgt>
<wgt id='3005'>0.22024E+02</wgt>
<wgt id='3006'>0.21963E+02</wgt>
<wgt id='3007'>0.21958E+02</wgt>
<wgt id='3008'>0.21903E+02</wgt>
<wgt id='3009'>0.21908E+02</wgt>
<wgt id='3010'>0.22020E+02</wgt>
<wgt id='3011'>0.21958E+02</wgt>
<wgt id='3012'>0.22030E+02</wgt>
<wgt id='3013'>0.21857E+02</wgt>
<wgt id='3014'>0.21919E+02</wgt>
<wgt id='3015'>0.22066E+02</wgt>
<wgt id='3016'>0.21873E+02</wgt>
<wgt id='3017'>0.22103E+02</wgt>
<wgt id='3018'>0.21936E+02</wgt>
<wgt id='3019'>0.21958E+02</wgt>
<wgt id='3020'>0.22091E+02</wgt>
<wgt id='3021'>0.21735E+02</wgt>
<wgt id='3022'>0.21962E+02</wgt>
<wgt id='3023'>0.21987E+02</wgt>
<wgt id='3024'>0.21759E+02</wgt>
<wgt id='3025'>0.22131E+02</wgt>
<wgt id='3026'>0.21969E+02</wgt>
<wgt id='3027'>0.21943E+02</wgt>
<wgt id='3028'>0.21954E+02</wgt>
<wgt id='3029'>0.21688E+02</wgt>
<wgt id='3030'>0.22049E+02</wgt>
<wgt id='3031'>0.22045E+02</wgt>
<wgt id='3032'>0.22026E+02</wgt>
<wgt id='3033'>0.21944E+02</wgt>
<wgt id='3034'>0.21932E+02</wgt>
<wgt id='3035'>0.22050E+02</wgt>
<wgt id='3036'>0.22024E+02</wgt>
<wgt id='3037'>0.22013E+02</wgt>
<wgt id='3038'>0.22014E+02</wgt>
<wgt id='3039'>0.22047E+02</wgt>
<wgt id='3040'>0.21907E+02</wgt>
<wgt id='3041'>0.22147E+02</wgt>
<wgt id='3042'>0.22003E+02</wgt>
<wgt id='3043'>0.21909E+02</wgt>
<wgt id='3044'>0.22053E+02</wgt>
<wgt id='3045'>0.21929E+02</wgt>
<wgt id='3046'>0.21992E+02</wgt>
<wgt id='3047'>0.22031E+02</wgt>
<wgt id='3048'>0.21968E+02</wgt>
<wgt id='3049'>0.21847E+02</wgt>
<wgt id='3050'>0.21900E+02</wgt>
<wgt id='3051'>0.21916E+02</wgt>
<wgt id='3052'>0.22044E+02</wgt>
<wgt id='3053'>0.22001E+02</wgt>
<wgt id='3054'>0.22040E+02</wgt>
<wgt id='3055'>0.21969E+02</wgt>
<wgt id='3056'>0.21861E+02</wgt>
<wgt id='3057'>0.22034E+02</wgt>
<wgt id='3058'>0.21985E+02</wgt>
<wgt id='3059'>0.21969E+02</wgt>
<wgt id='3060'>0.21925E+02</wgt>
<wgt id='3061'>0.21906E+02</wgt>
<wgt id='3062'>0.21885E+02</wgt>
<wgt id='3063'>0.21901E+02</wgt>
<wgt id='3064'>0.21950E+02</wgt>
<wgt id='3065'>0.21952E+02</wgt>
<wgt id='3066'>0.21876E+02</wgt>
<wgt id='3067'>0.22035E+02</wgt>
<wgt id='3068'>0.22016E+02</wgt>
<wgt id='3069'>0.22003E+02</wgt>
<wgt id='3070'>0.22017E+02</wgt>
<wgt id='3071'>0.21916E+02</wgt>
<wgt id='3072'>0.21989E+02</wgt>
<wgt id='3073'>0.21980E+02</wgt>
<wgt id='3074'>0.21877E+02</wgt>
<wgt id='3075'>0.21974E+02</wgt>
<wgt id='3076'>0.21920E+02</wgt>
<wgt id='3077'>0.21934E+02</wgt>
<wgt id='3078'>0.21952E+02</wgt>
<wgt id='3079'>0.21998E+02</wgt>
<wgt id='3080'>0.21945E+02</wgt>
<wgt id='3081'>0.21992E+02</wgt>
<wgt id='3082'>0.22005E+02</wgt>
<wgt id='3083'>0.21975E+02</wgt>
<wgt id='3084'>0.21941E+02</wgt>
<wgt id='3085'>0.21914E+02</wgt>
<wgt id='3086'>0.21973E+02</wgt>
<wgt id='3087'>0.22005E+02</wgt>
<wgt id='3088'>0.21962E+02</wgt>
<wgt id='3089'>0.21971E+02</wgt>
<wgt id='3090'>0.21948E+02</wgt>
<wgt id='3091'>0.22000E+02</wgt>
<wgt id='3092'>0.21984E+02</wgt>
<wgt id='3093'>0.21913E+02</wgt>
<wgt id='3094'>0.21999E+02</wgt>
<wgt id='3095'>0.21981E+02</wgt>
<wgt id='3096'>0.21926E+02</wgt>
<wgt id='3097'>0.21936E+02</wgt>
<wgt id='3098'>0.21993E+02</wgt>
<wgt id='3099'>0.21943E+02</wgt>
<wgt id='3100'>0.21949E+02</wgt>
<wgt id='3101'>0.20399E+02</wgt>
<wgt id='3102'>0.23515E+02</wgt>
<wgt id='5000'>0.23692E+02</wgt>
<wgt id='5001'>0.23717E+02</wgt>
<wgt id='5002'>0.23761E+02</wgt>
<wgt id='5003'>0.23651E+02</wgt>
<wgt id='5004'>0.23659E+02</wgt>
<wgt id='5005'>0.23177E+02</wgt>
<wgt id='5006'>0.23346E+02</wgt>
<wgt id='5007'>0.23512E+02</wgt>
<wgt id='5008'>0.23687E+02</wgt>
<wgt id='5009'>0.23676E+02</wgt>
<wgt id='5010'>0.23624E+02</wgt>
<wgt id='5011'>0.23780E+02</wgt>
<wgt id='5012'>0.23654E+02</wgt>
<wgt id='5013'>0.23761E+02</wgt>
<wgt id='5014'>0.23949E+02</wgt>
<wgt id='5015'>0.23751E+02</wgt>
<wgt id='5016'>0.23516E+02</wgt>
<wgt id='5017'>0.23323E+02</wgt>
<wgt id='5018'>0.24079E+02</wgt>
<wgt id='5019'>0.23939E+02</wgt>
<wgt id='5020'>0.23451E+02</wgt>
<wgt id='5021'>0.23677E+02</wgt>
<wgt id='5022'>0.23700E+02</wgt>
<wgt id='5023'>0.23558E+02</wgt>
<wgt id='5024'>0.23836E+02</wgt>
<wgt id='5025'>0.23798E+02</wgt>
<wgt id='5026'>0.23603E+02</wgt>
<wgt id='5027'>0.23857E+02</wgt>
<wgt id='5028'>0.23410E+02</wgt>
<wgt id='5029'>0.23414E+02</wgt>
<wgt id='5030'>0.23859E+02</wgt>
<wgt id='5031'>0.23478E+02</wgt>
<wgt id='5032'>0.24004E+02</wgt>
<wgt id='5033'>0.23587E+02</wgt>
<wgt id='5034'>0.23782E+02</wgt>
<wgt id='5035'>0.23761E+02</wgt>
<wgt id='5036'>0.23607E+02</wgt>
<wgt id='5037'>0.23078E+02</wgt>
<wgt id='5038'>0.24379E+02</wgt>
<wgt id='5039'>0.24408E+02</wgt>
<wgt id='5040'>0.23308E+02</wgt>
<wgt id='5041'>0.23657E+02</wgt>
<wgt id='5042'>0.23666E+02</wgt>
<wgt id='5043'>0.23906E+02</wgt>
<wgt id='5044'>0.23431E+02</wgt>
<wgt id='5045'>0.24247E+02</wgt>
<wgt id='5046'>0.23006E+02</wgt>
<wgt id='5047'>0.23861E+02</wgt>
<wgt id='5048'>0.23475E+02</wgt>
<wgt id='5049'>0.23711E+02</wgt>
<wgt id='5050'>0.23648E+02</wgt>
<wgt id='5051'>0.23689E+02</wgt>
<wgt id='5052'>0.23659E+02</wgt>
<wgt id='5053'>0.23217E+02</wgt>
<wgt id='5054'>0.23651E+02</wgt>
<wgt id='5055'>0.23462E+02</wgt>
<wgt id='5056'>0.24162E+02</wgt>
<wgt id='5060'>0.22187E+02</wgt>
<wgt id='5070'>0.25222E+02</wgt>
<wgt id='4000'>0.23676E+02</wgt>
<wgt id='4001'>0.23641E+02</wgt>
<wgt id='4002'>0.23693E+02</wgt>
<wgt id='4003'>0.23538E+02</wgt>
<wgt id='4004'>0.23350E+02</wgt>
<wgt id='4005'>0.23620E+02</wgt>
<wgt id='4006'>0.23721E+02</wgt>
<wgt id='4007'>0.23881E+02</wgt>
<wgt id='4008'>0.23343E+02</wgt>
<wgt id='4009'>0.23555E+02</wgt>
<wgt id='4010'>0.23699E+02</wgt>
<wgt id='4011'>0.24277E+02</wgt>
<wgt id='4012'>0.23243E+02</wgt>
<wgt id='4013'>0.23339E+02</wgt>
<wgt id='4014'>0.23920E+02</wgt>
<wgt id='4015'>0.24287E+02</wgt>
<wgt id='4016'>0.23263E+02</wgt>
<wgt id='4017'>0.23146E+02</wgt>
<wgt id='4018'>0.24307E+02</wgt>
<wgt id='4019'>0.23977E+02</wgt>
<wgt id='4020'>0.23356E+02</wgt>
<wgt id='4021'>0.23788E+02</wgt>
<wgt id='4022'>0.23459E+02</wgt>
<wgt id='4023'>0.23594E+02</wgt>
<wgt id='4024'>0.23756E+02</wgt>
<wgt id='4025'>0.24038E+02</wgt>
<wgt id='4026'>0.23321E+02</wgt>
<wgt id='4027'>0.23706E+02</wgt>
<wgt id='4028'>0.23638E+02</wgt>
<wgt id='4029'>0.23613E+02</wgt>
<wgt id='4030'>0.23700E+02</wgt>
<wgt id='4031'>0.23776E+02</wgt>
<wgt id='4032'>0.23548E+02</wgt>
<wgt id='4033'>0.23491E+02</wgt>
<wgt id='4034'>0.24083E+02</wgt>
<wgt id='4035'>0.23462E+02</wgt>
<wgt id='4036'>0.23889E+02</wgt>
<wgt id='4037'>0.23709E+02</wgt>
<wgt id='4038'>0.23634E+02</wgt>
<wgt id='4039'>0.23672E+02</wgt>
<wgt id='4040'>0.23724E+02</wgt>
<wgt id='4041'>0.23663E+02</wgt>
<wgt id='4042'>0.23701E+02</wgt>
<wgt id='4043'>0.23691E+02</wgt>
<wgt id='4044'>0.23869E+02</wgt>
<wgt id='4045'>0.23531E+02</wgt>
<wgt id='4046'>0.23753E+02</wgt>
<wgt id='4047'>0.23555E+02</wgt>
<wgt id='4048'>0.23320E+02</wgt>
<wgt id='4049'>0.23279E+02</wgt>
<wgt id='4050'>0.23481E+02</wgt>
<wgt id='4051'>0.23738E+02</wgt>
<wgt id='4052'>0.23706E+02</wgt>
<wgt id='4053'>0.22942E+02</wgt>
<wgt id='4054'>0.24023E+02</wgt>
<wgt id='4055'>0.23439E+02</wgt>
<wgt id='4056'>0.24109E+02</wgt>
<wgt id='4060'>0.22161E+02</wgt>
<wgt id='4070'>0.25269E+02</wgt>
<wgt id='4080'>0.17787E+02</wgt>
<wgt id='6000'>0.23846E+02</wgt>
<wgt id='6001'>0.23868E+02</wgt>
<wgt id='6002'>0.23821E+02</wgt>
<wgt id='6003'>0.23875E+02</wgt>
<wgt id='6004'>0.23827E+02</wgt>
<wgt id='6005'>0.23999E+02</wgt>
<wgt id='6006'>0.23705E+02</wgt>
<wgt id='6007'>0.23734E+02</wgt>
<wgt id='6008'>0.23973E+02</wgt>
<wgt id='6009'>0.23901E+02</wgt>
<wgt id='6010'>0.23793E+02</wgt>
<wgt id='6011'>0.23885E+02</wgt>
<wgt id='6012'>0.23764E+02</wgt>
<wgt id='6013'>0.23830E+02</wgt>
<wgt id='6014'>0.23876E+02</wgt>
<wgt id='6015'>0.23794E+02</wgt>
<wgt id='6016'>0.23876E+02</wgt>
<wgt id='6017'>0.23707E+02</wgt>
<wgt id='6018'>0.24011E+02</wgt>
<wgt id='6019'>0.23856E+02</wgt>
<wgt id='6020'>0.23837E+02</wgt>
<wgt id='6021'>0.23781E+02</wgt>
<wgt id='6022'>0.23933E+02</wgt>
<wgt id='6023'>0.23662E+02</wgt>
<wgt id='6024'>0.23971E+02</wgt>
<wgt id='6025'>0.23775E+02</wgt>
<wgt id='6026'>0.23917E+02</wgt>
<wgt id='6027'>0.23877E+02</wgt>
<wgt id='6028'>0.23838E+02</wgt>
<wgt id='6029'>0.23814E+02</wgt>
<wgt id='6030'>0.23887E+02</wgt>
<wgt id='6031'>0.23600E+02</wgt>
<wgt id='6032'>0.24121E+02</wgt>
<wgt id='6033'>0.23970E+02</wgt>
<wgt id='6034'>0.23725E+02</wgt>
<wgt id='6035'>0.23881E+02</wgt>
<wgt id='6036'>0.23774E+02</wgt>
<wgt id='6037'>0.23878E+02</wgt>
<wgt id='6038'>0.23836E+02</wgt>
<wgt id='6039'>0.23780E+02</wgt>
<wgt id='6040'>0.23921E+02</wgt>
<wgt id='6041'>0.23647E+02</wgt>
<wgt id='6042'>0.24073E+02</wgt>
<wgt id='6043'>0.24135E+02</wgt>
<wgt id='6044'>0.23709E+02</wgt>
<wgt id='6045'>0.23810E+02</wgt>
<wgt id='6046'>0.23938E+02</wgt>
<wgt id='6047'>0.24113E+02</wgt>
<wgt id='6048'>0.23403E+02</wgt>
<wgt id='6049'>0.23964E+02</wgt>
<wgt id='6050'>0.23780E+02</wgt>
<wgt id='7000'>0.23051E+02</wgt>
<wgt id='7001'>0.23049E+02</wgt>
<wgt id='7002'>0.23055E+02</wgt>
<wgt id='7003'>0.23146E+02</wgt>
<wgt id='7004'>0.22957E+02</wgt>
<wgt id='7005'>0.23133E+02</wgt>
<wgt id='7006'>0.23018E+02</wgt>
<wgt id='7007'>0.23010E+02</wgt>
<wgt id='7008'>0.23093E+02</wgt>
<wgt id='7009'>0.23085E+02</wgt>
<wgt id='7010'>0.23017E+02</wgt>
<wgt id='7011'>0.22909E+02</wgt>
<wgt id='7012'>0.23112E+02</wgt>
<wgt id='7013'>0.23047E+02</wgt>
<wgt id='7014'>0.23057E+02</wgt>
<wgt id='7015'>0.23023E+02</wgt>
<wgt id='7016'>0.23080E+02</wgt>
<wgt id='7017'>0.23040E+02</wgt>
<wgt id='7018'>0.23057E+02</wgt>
<wgt id='7019'>0.23052E+02</wgt>
<wgt id='7020'>0.23050E+02</wgt>
<wgt id='7021'>0.22995E+02</wgt>
<wgt id='7022'>0.23090E+02</wgt>
<wgt id='7023'>0.23356E+02</wgt>
<wgt id='7024'>0.22764E+02</wgt>
<wgt id='7025'>0.23152E+02</wgt>
<wgt id='7026'>0.22800E+02</wgt>
<wgt id='7027'>0.23099E+02</wgt>
<wgt id='7028'>0.23005E+02</wgt>
<wgt id='7029'>0.23074E+02</wgt>
<wgt id='7030'>0.23006E+02</wgt>
<wgt id='7031'>0.22947E+02</wgt>
<wgt id='7032'>0.23267E+02</wgt>
<wgt id='7033'>0.23071E+02</wgt>
<wgt id='7034'>0.23013E+02</wgt>
<wgt id='7035'>0.22938E+02</wgt>
<wgt id='7036'>0.23102E+02</wgt>
<wgt id='7037'>0.23046E+02</wgt>
<wgt id='7038'>0.23055E+02</wgt>
<wgt id='7039'>0.22962E+02</wgt>
<wgt id='7040'>0.23119E+02</wgt>
<wgt id='7041'>0.23070E+02</wgt>
<wgt id='7042'>0.22997E+02</wgt>
<wgt id='7043'>0.23078E+02</wgt>
<wgt id='7044'>0.22893E+02</wgt>
<wgt id='7045'>0.22681E+02</wgt>
<wgt id='7046'>0.23275E+02</wgt>
<wgt id='7047'>0.23192E+02</wgt>
<wgt id='7048'>0.22985E+02</wgt>
<wgt id='7049'>0.22913E+02</wgt>
<wgt id='7050'>0.23112E+02</wgt>
<wgt id='7060'>0.29963E+02</wgt>
<wgt id='8000'>0.23113E+02</wgt>
<wgt id='8001'>0.23105E+02</wgt>
<wgt id='8002'>0.23122E+02</wgt>
<wgt id='8003'>0.23113E+02</wgt>
<wgt id='8004'>0.23112E+02</wgt>
<wgt id='8005'>0.23049E+02</wgt>
<wgt id='8006'>0.23135E+02</wgt>
<wgt id='8007'>0.23151E+02</wgt>
<wgt id='8008'>0.23178E+02</wgt>
<wgt id='8009'>0.23240E+02</wgt>
<wgt id='8010'>0.23086E+02</wgt>
<wgt id='8011'>0.23125E+02</wgt>
<wgt id='8012'>0.23025E+02</wgt>
<wgt id='8013'>0.22960E+02</wgt>
<wgt id='8014'>0.23159E+02</wgt>
<wgt id='8015'>0.23079E+02</wgt>
<wgt id='8016'>0.23147E+02</wgt>
<wgt id='8017'>0.23107E+02</wgt>
<wgt id='8018'>0.23183E+02</wgt>
<wgt id='8019'>0.23134E+02</wgt>
<wgt id='8020'>0.23082E+02</wgt>
<wgt id='8021'>0.23090E+02</wgt>
<wgt id='8022'>0.23034E+02</wgt>
<wgt id='8023'>0.23098E+02</wgt>
<wgt id='8024'>0.23045E+02</wgt>
<wgt id='8025'>0.23128E+02</wgt>
<wgt id='8026'>0.23166E+02</wgt>
<wgt id='8027'>0.23119E+02</wgt>
<wgt id='8028'>0.23137E+02</wgt>
<wgt id='8029'>0.23078E+02</wgt>
<wgt id='8500'>0.24366E+02</wgt>
<wgt id='8501'>0.24153E+02</wgt>
<wgt id='8502'>0.24577E+02</wgt>
<wgt id='8503'>0.24442E+02</wgt>
<wgt id='8504'>0.24227E+02</wgt>
<wgt id='8505'>0.24360E+02</wgt>
<wgt id='8506'>0.24494E+02</wgt>
<wgt id='8507'>0.24117E+02</wgt>
<wgt id='8508'>0.23944E+02</wgt>
<wgt id='8509'>0.24519E+02</wgt>
<wgt id='8510'>0.24766E+02</wgt>
<wgt id='8511'>0.24295E+02</wgt>
<wgt id='8512'>0.24196E+02</wgt>
<wgt id='8513'>0.24492E+02</wgt>
<wgt id='8514'>0.23906E+02</wgt>
<wgt id='8515'>0.24534E+02</wgt>
<wgt id='8516'>0.24246E+02</wgt>
<wgt id='8517'>0.24229E+02</wgt>
<wgt id='8518'>0.24267E+02</wgt>
<wgt id='8519'>0.24142E+02</wgt>
<wgt id='8520'>0.24207E+02</wgt>
<wgt id='8521'>0.24337E+02</wgt>
<wgt id='8522'>0.24503E+02</wgt>
<wgt id='8523'>0.24237E+02</wgt>
<wgt id='8524'>0.24433E+02</wgt>
<wgt id='8525'>0.24519E+02</wgt>
<wgt id='8526'>0.24377E+02</wgt>
<wgt id='8527'>0.24334E+02</wgt>
<wgt id='8528'>0.24386E+02</wgt>
<wgt id='8529'>0.24366E+02</wgt>
<wgt id='8530'>0.24385E+02</wgt>
<wgt id='8531'>0.24363E+02</wgt>
<wgt id='8532'>0.24367E+02</wgt>
<wgt id='8533'>0.24358E+02</wgt>
<wgt id='8534'>0.24399E+02</wgt>
<wgt id='8535'>0.24384E+02</wgt>
<wgt id='8536'>0.24349E+02</wgt>
<wgt id='8537'>0.24366E+02</wgt>
<wgt id='8538'>0.24351E+02</wgt>
<wgt id='8539'>0.24383E+02</wgt>
<wgt id='8540'>0.24391E+02</wgt>
<wgt id='8541'>0.24373E+02</wgt>
<wgt id='8542'>0.24369E+02</wgt>
<wgt id='8543'>0.24349E+02</wgt>
<wgt id='8544'>0.24397E+02</wgt>
<wgt id='8545'>0.24369E+02</wgt>
<wgt id='8546'>0.24368E+02</wgt>
<wgt id='8547'>0.24376E+02</wgt>
<wgt id='8548'>0.24360E+02</wgt>
<wgt id='8549'>0.24376E+02</wgt>
<wgt id='8550'>0.24339E+02</wgt>
<wgt id='8551'>0.24357E+02</wgt>
<wgt id='8552'>0.24344E+02</wgt>
<wgt id='8553'>0.24337E+02</wgt>
<wgt id='8554'>0.24355E+02</wgt>
<wgt id='8555'>0.24360E+02</wgt>
<wgt id='8556'>0.24365E+02</wgt>
<wgt id='8557'>0.24373E+02</wgt>
<wgt id='8558'>0.24376E+02</wgt>
<wgt id='8559'>0.24368E+02</wgt>
<wgt id='8560'>0.24354E+02</wgt>
<wgt id='8561'>0.24379E+02</wgt>
<wgt id='8562'>0.24361E+02</wgt>
<wgt id='8563'>0.24364E+02</wgt>
<wgt id='8564'>0.24356E+02</wgt>
<wgt id='8565'>0.24369E+02</wgt>
<wgt id='8566'>0.24399E+02</wgt>
<wgt id='8567'>0.24378E+02</wgt>
<wgt id='8568'>0.24378E+02</wgt>
<wgt id='8569'>0.24373E+02</wgt>
<wgt id='8570'>0.24348E+02</wgt>
<wgt id='8571'>0.24360E+02</wgt>
<wgt id='8572'>0.24355E+02</wgt>
<wgt id='8573'>0.24349E+02</wgt>
<wgt id='8574'>0.24344E+02</wgt>
<wgt id='8575'>0.24367E+02</wgt>
<wgt id='8576'>0.24375E+02</wgt>
<wgt id='8577'>0.24337E+02</wgt>
<wgt id='8578'>0.24365E+02</wgt>
<wgt id='8579'>0.24380E+02</wgt>
<wgt id='8580'>0.24359E+02</wgt>
<wgt id='8581'>0.24365E+02</wgt>
<wgt id='8582'>0.24373E+02</wgt>
<wgt id='8583'>0.24368E+02</wgt>
<wgt id='8584'>0.24386E+02</wgt>
<wgt id='8585'>0.24368E+02</wgt>
<wgt id='8586'>0.24401E+02</wgt>
<wgt id='8587'>0.24381E+02</wgt>
<wgt id='8588'>0.24373E+02</wgt>
<wgt id='8589'>0.24368E+02</wgt>
<wgt id='8590'>0.24367E+02</wgt>
<wgt id='8591'>0.24343E+02</wgt>
<wgt id='8592'>0.24363E+02</wgt>
<wgt id='8593'>0.24363E+02</wgt>
<wgt id='8594'>0.24352E+02</wgt>
<wgt id='8595'>0.24356E+02</wgt>
<wgt id='8596'>0.24358E+02</wgt>
<wgt id='8597'>0.24377E+02</wgt>
<wgt id='8598'>0.24368E+02</wgt>
<wgt id='8599'>0.24372E+02</wgt>
<wgt id='8600'>0.24368E+02</wgt>
<wgt id='8601'>0.23318E+02</wgt>
<wgt id='8602'>0.25422E+02</wgt>
<wgt id='9000'>0.23694E+02</wgt>
<wgt id='9001'>0.23603E+02</wgt>
<wgt id='9002'>0.23786E+02</wgt>
<wgt id='9003'>0.23514E+02</wgt>
<wgt id='9004'>0.23681E+02</wgt>
<wgt id='9005'>0.23861E+02</wgt>
<wgt id='9006'>0.23704E+02</wgt>
<wgt id='9007'>0.23602E+02</wgt>
<wgt id='9008'>0.23658E+02</wgt>
<wgt id='9009'>0.23705E+02</wgt>
<wgt id='9010'>0.23531E+02</wgt>
<wgt id='9011'>0.24059E+02</wgt>
<wgt id='9012'>0.23780E+02</wgt>
<wgt id='9013'>0.23491E+02</wgt>
<wgt id='9014'>0.23605E+02</wgt>
<wgt id='9015'>0.23499E+02</wgt>
<wgt id='9016'>0.24063E+02</wgt>
<wgt id='9017'>0.23504E+02</wgt>
<wgt id='9018'>0.23701E+02</wgt>
<wgt id='9019'>0.23795E+02</wgt>
<wgt id='9020'>0.23972E+02</wgt>
<wgt id='9021'>0.23608E+02</wgt>
<wgt id='9022'>0.23737E+02</wgt>
<wgt id='9023'>0.23554E+02</wgt>
<wgt id='9024'>0.23583E+02</wgt>
<wgt id='9025'>0.23723E+02</wgt>
<wgt id='9026'>0.23639E+02</wgt>
<wgt id='9027'>0.23732E+02</wgt>
<wgt id='9028'>0.23744E+02</wgt>
<wgt id='9029'>0.23680E+02</wgt>
<wgt id='9030'>0.23678E+02</wgt>
<wgt id='9031'>0.23736E+02</wgt>
<wgt id='9032'>0.23692E+02</wgt>
<wgt id='9033'>0.23702E+02</wgt>
<wgt id='9034'>0.23697E+02</wgt>
<wgt id='9035'>0.23699E+02</wgt>
<wgt id='9036'>0.23706E+02</wgt>
<wgt id='9037'>0.23716E+02</wgt>
<wgt id='9038'>0.23705E+02</wgt>
<wgt id='9039'>0.23675E+02</wgt>
<wgt id='9040'>0.23675E+02</wgt>
<wgt id='9041'>0.23682E+02</wgt>
<wgt id='9042'>0.23696E+02</wgt>
<wgt id='9043'>0.23700E+02</wgt>
<wgt id='9044'>0.23694E+02</wgt>
<wgt id='9045'>0.23698E+02</wgt>
<wgt id='9046'>0.23682E+02</wgt>
<wgt id='9047'>0.23688E+02</wgt>
<wgt id='9048'>0.23717E+02</wgt>
<wgt id='9049'>0.23675E+02</wgt>
<wgt id='9050'>0.23701E+02</wgt>
<wgt id='9051'>0.23704E+02</wgt>
<wgt id='9052'>0.23708E+02</wgt>
<wgt id='9053'>0.23696E+02</wgt>
<wgt id='9054'>0.23690E+02</wgt>
<wgt id='9055'>0.23688E+02</wgt>
<wgt id='9056'>0.23689E+02</wgt>
<wgt id='9057'>0.23695E+02</wgt>
<wgt id='9058'>0.23689E+02</wgt>
<wgt id='9059'>0.23691E+02</wgt>
<wgt id='9060'>0.23694E+02</wgt>
<wgt id='9061'>0.23698E+02</wgt>
<wgt id='9062'>0.23692E+02</wgt>
<wgt id='9063'>0.23691E+02</wgt>
<wgt id='9064'>0.23702E+02</wgt>
<wgt id='9065'>0.23687E+02</wgt>
<wgt id='9066'>0.23690E+02</wgt>
<wgt id='9067'>0.23693E+02</wgt>
<wgt id='9068'>0.23698E+02</wgt>
<wgt id='9069'>0.23702E+02</wgt>
<wgt id='9070'>0.23685E+02</wgt>
<wgt id='9071'>0.23715E+02</wgt>
<wgt id='9072'>0.23705E+02</wgt>
<wgt id='9073'>0.23684E+02</wgt>
<wgt id='9074'>0.23697E+02</wgt>
<wgt id='9075'>0.23693E+02</wgt>
<wgt id='9076'>0.23705E+02</wgt>
<wgt id='9077'>0.23701E+02</wgt>
<wgt id='9078'>0.23704E+02</wgt>
<wgt id='9079'>0.23692E+02</wgt>
<wgt id='9080'>0.23704E+02</wgt>
<wgt id='9081'>0.23705E+02</wgt>
<wgt id='9082'>0.23704E+02</wgt>
<wgt id='9083'>0.23687E+02</wgt>
<wgt id='9084'>0.23680E+02</wgt>
<wgt id='9085'>0.23687E+02</wgt>
<wgt id='9086'>0.23712E+02</wgt>
<wgt id='9087'>0.23669E+02</wgt>
<wgt id='9088'>0.23679E+02</wgt>
<wgt id='9089'>0.23679E+02</wgt>
<wgt id='9090'>0.23694E+02</wgt>
<wgt id='9091'>0.23682E+02</wgt>
<wgt id='9092'>0.23685E+02</wgt>
<wgt id='9093'>0.23690E+02</wgt>
<wgt id='9094'>0.23680E+02</wgt>
<wgt id='9095'>0.23696E+02</wgt>
<wgt id='9096'>0.23693E+02</wgt>
<wgt id='9097'>0.23697E+02</wgt>
<wgt id='9098'>0.23690E+02</wgt>
<wgt id='9099'>0.23692E+02</wgt>
<wgt id='9100'>0.23697E+02</wgt>
<wgt id='9101'>0.22725E+02</wgt>
<wgt id='9102'>0.24606E+02</wgt>
<wgt id='10000'>0.24364E+02</wgt>
<wgt id='10001'>0.24410E+02</wgt>
<wgt id='10002'>0.23943E+02</wgt>
<wgt id='10003'>0.24346E+02</wgt>
<wgt id='10004'>0.23783E+02</wgt>
<wgt id='10005'>0.24658E+02</wgt>
<wgt id='10006'>0.24108E+02</wgt>
<wgt id='10007'>0.24370E+02</wgt>
<wgt id='10008'>0.24467E+02</wgt>
<wgt id='10009'>0.24231E+02</wgt>
<wgt id='10010'>0.24458E+02</wgt>
<wgt id='10011'>0.24205E+02</wgt>
<wgt id='10012'>0.24403E+02</wgt>
<wgt id='10013'>0.24409E+02</wgt>
<wgt id='10014'>0.24289E+02</wgt>
<wgt id='10015'>0.24387E+02</wgt>
<wgt id='10016'>0.24242E+02</wgt>
<wgt id='10017'>0.24566E+02</wgt>
<wgt id='10018'>0.24445E+02</wgt>
<wgt id='10019'>0.24305E+02</wgt>
<wgt id='10020'>0.24340E+02</wgt>
<wgt id='10021'>0.24320E+02</wgt>
<wgt id='10022'>0.24315E+02</wgt>
<wgt id='10023'>0.24382E+02</wgt>
<wgt id='10024'>0.24264E+02</wgt>
<wgt id='10025'>0.24363E+02</wgt>
<wgt id='10026'>0.24465E+02</wgt>
<wgt id='10027'>0.24462E+02</wgt>
<wgt id='10028'>0.24716E+02</wgt>
<wgt id='10029'>0.24397E+02</wgt>
<wgt id='10030'>0.24368E+02</wgt>
<wgt id='10031'>0.23318E+02</wgt>
<wgt id='10032'>0.25422E+02</wgt>
<wgt id='11000'>0.23692E+02</wgt>
<wgt id='11001'>0.23132E+02</wgt>
<wgt id='11002'>0.23732E+02</wgt>
<wgt id='11003'>0.23661E+02</wgt>
<wgt id='11004'>0.23785E+02</wgt>
<wgt id='11005'>0.23497E+02</wgt>
<wgt id='11006'>0.23692E+02</wgt>
<wgt id='11007'>0.23664E+02</wgt>
<wgt id='11008'>0.23597E+02</wgt>
<wgt id='11009'>0.23649E+02</wgt>
<wgt id='11010'>0.23592E+02</wgt>
<wgt id='11011'>0.23673E+02</wgt>
<wgt id='11012'>0.23713E+02</wgt>
<wgt id='11013'>0.23716E+02</wgt>
<wgt id='11014'>0.23633E+02</wgt>
<wgt id='11015'>0.23565E+02</wgt>
<wgt id='11016'>0.23598E+02</wgt>
<wgt id='11017'>0.23872E+02</wgt>
<wgt id='11018'>0.23670E+02</wgt>
<wgt id='11019'>0.23665E+02</wgt>
<wgt id='11020'>0.23843E+02</wgt>
<wgt id='11021'>0.23761E+02</wgt>
<wgt id='11022'>0.24075E+02</wgt>
<wgt id='11023'>0.23725E+02</wgt>
<wgt id='11024'>0.23752E+02</wgt>
<wgt id='11025'>0.23685E+02</wgt>
<wgt id='11026'>0.23724E+02</wgt>
<wgt id='11027'>0.23751E+02</wgt>
<wgt id='11028'>0.23765E+02</wgt>
<wgt id='11029'>0.23625E+02</wgt>
<wgt id='11030'>0.23700E+02</wgt>
<wgt id='11031'>0.22725E+02</wgt>
<wgt id='11032'>0.24606E+02</wgt>
<wgt id='12000'>0.22464E+02</wgt>
<wgt id='12001'>0.22424E+02</wgt>
<wgt id='12002'>0.22505E+02</wgt>
<wgt id='12003'>0.22495E+02</wgt>
<wgt id='12004'>0.22433E+02</wgt>
<wgt id='12005'>0.22505E+02</wgt>
<wgt id='12006'>0.22423E+02</wgt>
<wgt id='12007'>0.22608E+02</wgt>
<wgt id='12008'>0.22324E+02</wgt>
<wgt id='12009'>0.22443E+02</wgt>
<wgt id='12010'>0.22487E+02</wgt>
<wgt id='12011'>0.22297E+02</wgt>
<wgt id='12012'>0.22649E+02</wgt>
<wgt id='12013'>0.22374E+02</wgt>
<wgt id='12014'>0.22556E+02</wgt>
<wgt id='12015'>0.22513E+02</wgt>
<wgt id='12016'>0.22368E+02</wgt>
<wgt id='12017'>0.22590E+02</wgt>
<wgt id='12018'>0.22379E+02</wgt>
<wgt id='12019'>0.22470E+02</wgt>
<wgt id='12020'>0.22439E+02</wgt>
<wgt id='12021'>0.22532E+02</wgt>
<wgt id='12022'>0.22390E+02</wgt>
<wgt id='12023'>0.22240E+02</wgt>
<wgt id='12024'>0.22623E+02</wgt>
<wgt id='12025'>0.22391E+02</wgt>
<wgt id='12026'>0.22555E+02</wgt>
<wgt id='12027'>0.22754E+02</wgt>
<wgt id='12028'>0.22207E+02</wgt>
<wgt id='12050'>0.22464E+02</wgt>
<wgt id='12051'>0.22556E+02</wgt>
<wgt id='12052'>0.22318E+02</wgt>
<wgt id='12053'>0.22559E+02</wgt>
<wgt id='12054'>0.22366E+02</wgt>
<wgt id='12055'>0.22472E+02</wgt>
<wgt id='12056'>0.22549E+02</wgt>
<wgt id='12057'>0.22420E+02</wgt>
<wgt id='12058'>0.22520E+02</wgt>
<wgt id='12059'>0.22928E+02</wgt>
<wgt id='12060'>0.22031E+02</wgt>
<wgt id='12061'>0.22368E+02</wgt>
<wgt id='12062'>0.22089E+02</wgt>
<wgt id='12063'>0.22360E+02</wgt>
<wgt id='13000'>0.22660E+02</wgt>
<wgt id='13001'>0.22626E+02</wgt>
<wgt id='13002'>0.22687E+02</wgt>
<wgt id='13003'>0.22662E+02</wgt>
<wgt id='13004'>0.22651E+02</wgt>
<wgt id='13005'>0.22699E+02</wgt>
<wgt id='13006'>0.22614E+02</wgt>
<wgt id='13007'>0.22836E+02</wgt>
<wgt id='13008'>0.22482E+02</wgt>
<wgt id='13009'>0.22554E+02</wgt>
<wgt id='13010'>0.22762E+02</wgt>
<wgt id='13011'>0.22751E+02</wgt>
<wgt id='13012'>0.22563E+02</wgt>
<wgt id='13013'>0.22610E+02</wgt>
<wgt id='13014'>0.22701E+02</wgt>
<wgt id='13015'>0.22629E+02</wgt>
<wgt id='13016'>0.22618E+02</wgt>
<wgt id='13017'>0.22665E+02</wgt>
<wgt id='13018'>0.22648E+02</wgt>
<wgt id='13019'>0.22621E+02</wgt>
<wgt id='13020'>0.22695E+02</wgt>
<wgt id='13021'>0.22655E+02</wgt>
<wgt id='13022'>0.22645E+02</wgt>
<wgt id='13023'>0.22536E+02</wgt>
<wgt id='13024'>0.22777E+02</wgt>
<wgt id='13025'>0.22330E+02</wgt>
<wgt id='13026'>0.22945E+02</wgt>
<wgt id='13027'>0.22529E+02</wgt>
<wgt id='13028'>0.22809E+02</wgt>
<wgt id='13050'>0.22660E+02</wgt>
<wgt id='13051'>0.22748E+02</wgt>
<wgt id='13052'>0.22444E+02</wgt>
<wgt id='13053'>0.22737E+02</wgt>
<wgt id='13054'>0.22589E+02</wgt>
<wgt id='13055'>0.22277E+02</wgt>
<wgt id='13056'>0.22556E+02</wgt>
<wgt id='13057'>0.22602E+02</wgt>
<wgt id='13058'>0.22792E+02</wgt>
<wgt id='13059'>0.23038E+02</wgt>
<wgt id='13060'>0.21806E+02</wgt>
<wgt id='13061'>0.22590E+02</wgt>
<wgt id='13062'>0.22523E+02</wgt>
<wgt id='13063'>0.22736E+02</wgt>
<wgt id='14000'>0.23518E+02</wgt>
<wgt id='14001'>0.23516E+02</wgt>
<wgt id='14002'>0.23514E+02</wgt>
<wgt id='14003'>0.23512E+02</wgt>
<wgt id='14004'>0.23511E+02</wgt>
<wgt id='14005'>0.23509E+02</wgt>
<wgt id='14006'>0.23507E+02</wgt>
<wgt id='14007'>0.23505E+02</wgt>
<wgt id='14008'>0.23503E+02</wgt>
<wgt id='14009'>0.23501E+02</wgt>
<wgt id='14010'>0.23499E+02</wgt>
<wgt id='14011'>0.23498E+02</wgt>
<wgt id='14012'>0.23496E+02</wgt>
<wgt id='14013'>0.23494E+02</wgt>
<wgt id='14014'>0.23492E+02</wgt>
<wgt id='14015'>0.23490E+02</wgt>
<wgt id='14016'>0.23488E+02</wgt>
<wgt id='14017'>0.23487E+02</wgt>
<wgt id='14018'>0.23485E+02</wgt>
<wgt id='14019'>0.23483E+02</wgt>
<wgt id='14020'>0.23481E+02</wgt>
<wgt id='14021'>0.23479E+02</wgt>
<wgt id='14022'>0.23478E+02</wgt>
<wgt id='14023'>0.23476E+02</wgt>
<wgt id='14024'>0.23474E+02</wgt>
<wgt id='14025'>0.23472E+02</wgt>
<wgt id='14026'>0.23470E+02</wgt>
<wgt id='14027'>0.23469E+02</wgt>
<wgt id='14028'>0.23467E+02</wgt>
<wgt id='14029'>0.23465E+02</wgt>
<wgt id='14030'>0.23463E+02</wgt>
<wgt id='15000'>0.23382E+02</wgt>
<wgt id='15001'>0.23287E+02</wgt>
<wgt id='15002'>0.23471E+02</wgt>
<wgt id='15003'>0.23206E+02</wgt>
<wgt id='15004'>0.23368E+02</wgt>
<wgt id='15005'>0.23547E+02</wgt>
<wgt id='15006'>0.23397E+02</wgt>
<wgt id='15007'>0.23295E+02</wgt>
<wgt id='15008'>0.23347E+02</wgt>
<wgt id='15009'>0.23394E+02</wgt>
<wgt id='15010'>0.23221E+02</wgt>
<wgt id='15011'>0.23747E+02</wgt>
<wgt id='15012'>0.23470E+02</wgt>
<wgt id='15013'>0.23186E+02</wgt>
<wgt id='15014'>0.23294E+02</wgt>
<wgt id='15015'>0.23181E+02</wgt>
<wgt id='15016'>0.23752E+02</wgt>
<wgt id='15017'>0.23192E+02</wgt>
<wgt id='15018'>0.23389E+02</wgt>
<wgt id='15019'>0.23486E+02</wgt>
<wgt id='15020'>0.23662E+02</wgt>
<wgt id='15021'>0.23295E+02</wgt>
<wgt id='15022'>0.23425E+02</wgt>
<wgt id='15023'>0.23245E+02</wgt>
<wgt id='15024'>0.23270E+02</wgt>
<wgt id='15025'>0.23408E+02</wgt>
<wgt id='15026'>0.23324E+02</wgt>
<wgt id='15027'>0.23425E+02</wgt>
<wgt id='15028'>0.23434E+02</wgt>
<wgt id='15029'>0.23366E+02</wgt>
<wgt id='15030'>0.23365E+02</wgt>
<wgt id='15031'>0.23428E+02</wgt>
<wgt id='15032'>0.23378E+02</wgt>
<wgt id='15033'>0.23389E+02</wgt>
<wgt id='15034'>0.23385E+02</wgt>
<wgt id='15035'>0.23386E+02</wgt>
<wgt id='15036'>0.23394E+02</wgt>
<wgt id='15037'>0.23404E+02</wgt>
<wgt id='15038'>0.23392E+02</wgt>
<wgt id='15039'>0.23362E+02</wgt>
<wgt id='15040'>0.23364E+02</wgt>
<wgt id='15041'>0.23369E+02</wgt>
<wgt id='15042'>0.23383E+02</wgt>
<wgt id='15043'>0.23391E+02</wgt>
<wgt id='15044'>0.23382E+02</wgt>
<wgt id='15045'>0.23386E+02</wgt>
<wgt id='15046'>0.23372E+02</wgt>
<wgt id='15047'>0.23375E+02</wgt>
<wgt id='15048'>0.23406E+02</wgt>
<wgt id='15049'>0.23363E+02</wgt>
<wgt id='15050'>0.23389E+02</wgt>
<wgt id='15051'>0.23392E+02</wgt>
<wgt id='15052'>0.23396E+02</wgt>
<wgt id='15053'>0.23385E+02</wgt>
<wgt id='15054'>0.23379E+02</wgt>
<wgt id='15055'>0.23377E+02</wgt>
<wgt id='15056'>0.23376E+02</wgt>
<wgt id='15057'>0.23384E+02</wgt>
<wgt id='15058'>0.23379E+02</wgt>
<wgt id='15059'>0.23380E+02</wgt>
<wgt id='15060'>0.23383E+02</wgt>
<wgt id='15061'>0.23386E+02</wgt>
<wgt id='15062'>0.23380E+02</wgt>
<wgt id='15063'>0.23379E+02</wgt>
<wgt id='15064'>0.23390E+02</wgt>
<wgt id='15065'>0.23375E+02</wgt>
<wgt id='15066'>0.23378E+02</wgt>
<wgt id='15067'>0.23380E+02</wgt>
<wgt id='15068'>0.23386E+02</wgt>
<wgt id='15069'>0.23389E+02</wgt>
<wgt id='15070'>0.23374E+02</wgt>
<wgt id='15071'>0.23403E+02</wgt>
<wgt id='15072'>0.23393E+02</wgt>
<wgt id='15073'>0.23372E+02</wgt>
<wgt id='15074'>0.23385E+02</wgt>
<wgt id='15075'>0.23381E+02</wgt>
<wgt id='15076'>0.23394E+02</wgt>
<wgt id='15077'>0.23390E+02</wgt>
<wgt id='15078'>0.23393E+02</wgt>
<wgt id='15079'>0.23380E+02</wgt>
<wgt id='15080'>0.23391E+02</wgt>
<wgt id='15081'>0.23394E+02</wgt>
<wgt id='15082'>0.23393E+02</wgt>
<wgt id='15083'>0.23375E+02</wgt>
<wgt id='15084'>0.23368E+02</wgt>
<wgt id='15085'>0.23376E+02</wgt>
<wgt id='15086'>0.23401E+02</wgt>
<wgt id='15087'>0.23357E+02</wgt>
<wgt id='15088'>0.23367E+02</wgt>
<wgt id='15089'>0.23367E+02</wgt>
<wgt id='15090'>0.23382E+02</wgt>
<wgt id='15091'>0.23370E+02</wgt>
<wgt id='15092'>0.23373E+02</wgt>
<wgt id='15093'>0.23379E+02</wgt>
<wgt id='15094'>0.23367E+02</wgt>
<wgt id='15095'>0.23385E+02</wgt>
<wgt id='15096'>0.23382E+02</wgt>
<wgt id='15097'>0.23386E+02</wgt>
<wgt id='15098'>0.23378E+02</wgt>
<wgt id='15099'>0.23380E+02</wgt>
<wgt id='15100'>0.23385E+02</wgt>
<wgt id='15101'>0.23382E+02</wgt>
<wgt id='15102'>0.23381E+02</wgt>
<wgt id='15103'>0.23382E+02</wgt>
<wgt id='15104'>0.23382E+02</wgt>
<wgt id='15105'>0.23383E+02</wgt>
<wgt id='15106'>0.23382E+02</wgt>
<wgt id='15107'>0.23381E+02</wgt>
<wgt id='1500'>0.25490E+02</wgt>
<wgt id='1501'>0.24688E+02</wgt>
<wgt id='1502'>0.25506E+02</wgt>
<wgt id='1503'>0.25784E+02</wgt>
<wgt id='1504'>0.24922E+02</wgt>
<wgt id='1505'>0.23579E+02</wgt>
<wgt id='1506'>0.25977E+02</wgt>
<wgt id='1507'>0.25501E+02</wgt>
<wgt id='1508'>0.25699E+02</wgt>
<wgt id='1509'>0.25887E+02</wgt>
<wgt id='1510'>0.24579E+02</wgt>
<wgt id='1511'>0.23799E+02</wgt>
<wgt id='1512'>0.25987E+02</wgt>
<wgt id='1513'>0.25494E+02</wgt>
<wgt id='1514'>0.25017E+02</wgt>
<wgt id='1515'>0.25975E+02</wgt>
<wgt id='1516'>0.26051E+02</wgt>
<wgt id='1517'>0.25634E+02</wgt>
<wgt id='1518'>0.25907E+02</wgt>
<wgt id='1519'>0.25954E+02</wgt>
<wgt id='1520'>0.26755E+02</wgt>
<wgt id='1521'>0.25513E+02</wgt>
<wgt id='1522'>0.24976E+02</wgt>
<wgt id='1523'>0.26950E+02</wgt>
<wgt id='1524'>0.25310E+02</wgt>
<wgt id='1525'>0.25435E+02</wgt>
<wgt id='1526'>0.25367E+02</wgt>
<wgt id='1527'>0.25763E+02</wgt>
<wgt id='1528'>0.25260E+02</wgt>
<wgt id='1529'>0.25920E+02</wgt>
<wgt id='1530'>0.26303E+02</wgt>
<wgt id='1531'>0.25031E+02</wgt>
<wgt id='1532'>0.24559E+02</wgt>
<wgt id='1533'>0.25137E+02</wgt>
<wgt id='1534'>0.25330E+02</wgt>
<wgt id='1535'>0.26143E+02</wgt>
<wgt id='1536'>0.25885E+02</wgt>
<wgt id='1537'>0.26033E+02</wgt>
<wgt id='1538'>0.25692E+02</wgt>
<wgt id='1539'>0.25164E+02</wgt>
<wgt id='1540'>0.25305E+02</wgt>
<wgt id='1541'>0.25674E+02</wgt>
<wgt id='1542'>0.25330E+02</wgt>
<wgt id='1543'>0.25213E+02</wgt>
<wgt id='1544'>0.25377E+02</wgt>
<wgt id='1545'>0.25374E+02</wgt>
<wgt id='1546'>0.25955E+02</wgt>
<wgt id='1547'>0.25275E+02</wgt>
<wgt id='1548'>0.25432E+02</wgt>
<wgt id='1549'>0.25498E+02</wgt>
<wgt id='1550'>0.25238E+02</wgt>
<wgt id='1551'>0.25285E+02</wgt>
<wgt id='1552'>0.25118E+02</wgt>
<wgt id='1553'>0.25764E+02</wgt>
<wgt id='1554'>0.25171E+02</wgt>
<wgt id='1555'>0.25119E+02</wgt>
<wgt id='1556'>0.25313E+02</wgt>
<wgt id='1557'>0.26151E+02</wgt>
<wgt id='1558'>0.24984E+02</wgt>
<wgt id='1559'>0.26196E+02</wgt>
<wgt id='1560'>0.25418E+02</wgt>
<wgt id='1561'>0.25650E+02</wgt>
<wgt id='1562'>0.25813E+02</wgt>
<wgt id='1563'>0.25294E+02</wgt>
<wgt id='1564'>0.25261E+02</wgt>
<wgt id='1565'>0.25681E+02</wgt>
<wgt id='1566'>0.25258E+02</wgt>
<wgt id='1567'>0.27233E+02</wgt>
<wgt id='1568'>0.25250E+02</wgt>
<wgt id='1569'>0.24578E+02</wgt>
<wgt id='1570'>0.24929E+02</wgt>
<wgt id='1571'>0.25434E+02</wgt>
<wgt id='1572'>0.25604E+02</wgt>
<wgt id='1573'>0.24200E+02</wgt>
<wgt id='1574'>0.25656E+02</wgt>
<wgt id='1575'>0.25387E+02</wgt>
<wgt id='1576'>0.24439E+02</wgt>
<wgt id='1577'>0.25113E+02</wgt>
<wgt id='1578'>0.25998E+02</wgt>
<wgt id='1579'>0.25398E+02</wgt>
<wgt id='1580'>0.25230E+02</wgt>
<wgt id='1581'>0.25454E+02</wgt>
<wgt id='1582'>0.24822E+02</wgt>
<wgt id='1583'>0.26609E+02</wgt>
<wgt id='1584'>0.25474E+02</wgt>
<wgt id='1585'>0.25113E+02</wgt>
<wgt id='1586'>0.25225E+02</wgt>
<wgt id='1587'>0.25489E+02</wgt>
<wgt id='1588'>0.25540E+02</wgt>
<wgt id='1589'>0.26714E+02</wgt>
<wgt id='1590'>0.25008E+02</wgt>
<wgt id='1591'>0.25215E+02</wgt>
<wgt id='1592'>0.25606E+02</wgt>
<wgt id='1593'>0.25734E+02</wgt>
<wgt id='1594'>0.26087E+02</wgt>
<wgt id='1595'>0.25256E+02</wgt>
<wgt id='1596'>0.25900E+02</wgt>
<wgt id='1597'>0.25644E+02</wgt>
<wgt id='1598'>0.25948E+02</wgt>
<wgt id='1599'>0.26143E+02</wgt>
<wgt id='1600'>0.25980E+02</wgt>
<wgt id='1601'>0.24709E+02</wgt>
<wgt id='1602'>0.26123E+02</wgt>
<wgt id='1700'>0.24276E+02</wgt>
<wgt id='1800'>0.18629E+02</wgt>
<wgt id='1850'>0.25930E+02</wgt>
<wgt id='1900'>0.21478E+02</wgt>
<wgt id='1950'>0.26620E+02</wgt>
</rwgt>
</event>
<event>
      4   9999  2.16956E+01  2.89743E+02 -1.00000E+00  1.04926E-01
      21    -1     0     0   502   501  0.000000000E+00  0.000000000E+00  3.102289450E+02  3.102289450E+02  0.000000000E+00  0.00000E+00  9.000E+00
      21    -1     0     0   511   502  0.000000000E+00  0.000000000E+00 -4.137072699E+02  4.137072699E+02  0.000000000E+00  0.00000E+00  9.000E+00
      25     1     1     2     0     0  2.052979733E+02  2.044596487E+02  1.402450204E+02  3.453175745E+02  1.249982230E+02  0.00000E+00  9.000E+00
      21     1     1     2   511   501 -2.052979733E+02 -2.044596487E+02 -2.437233453E+02  3.786186404E+02  0.000000000E+00  0.00000E+00  9.000E+00
#rwgt            2          11   2.1256835528190834                1        2379           0
<rwgt>
<wgt id='1001'>0.21696E+02</wgt>
<wgt id='1002'>0.19746E+02</wgt>
<wgt id='1003'>0.23904E+02</wgt>
<wgt id='1004'>0.16381E+02</wgt>
<wgt id='1005'>0.14908E+02</wgt>
<wgt id='1006'>0.18048E+02</wgt>
<wgt id='1007'>0.29632E+02</wgt>
<wgt id='1008'>0.26969E+02</wgt>
<wgt id='1009'>0.32648E+02</wgt>
<wgt id='2000'>0.21696E+02</wgt>
<wgt id='2001'>0.21673E+02</wgt>
<wgt id='2002'>0.21693E+02</wgt>
<wgt id='2003'>0.21689E+02</wgt>
<wgt id='2004'>0.21757E+02</wgt>
<wgt id='2005'>0.21686E+02</wgt>
<wgt id='2006'>0.21648E+02</wgt>
<wgt id='2007'>0.21662E+02</wgt>
<wgt id='2008'>0.21632E+02</wgt>
<wgt id='2009'>0.21724E+02</wgt>
<wgt id='2010'>0.21696E+02</wgt>
<wgt id='2011'>0.21604E+02</wgt>
<wgt id='2012'>0.21648E+02</wgt>
<wgt id='2013'>0.21593E+02</wgt>
<wgt id='2014'>0.21702E+02</wgt>
<wgt id='2015'>0.21700E+02</wgt>
<wgt id='2016'>0.21745E+02</wgt>
<wgt id='2017'>0.21685E+02</wgt>
<wgt id='2018'>0.21672E+02</wgt>
<wgt id='2019'>0.21711E+02</wgt>
<wgt id='2020'>0.21720E+02</wgt>
<wgt id='2021'>0.21690E+02</wgt>
<wgt id='2022'>0.21723E+02</wgt>
<wgt id='2023'>0.21737E+02</wgt>
<wgt id='2024'>0.21641E+02</wgt>
<wgt id='2025'>0.21776E+02</wgt>
<wgt id='2026'>0.21803E+02</wgt>
<wgt id='2027'>0.21648E+02</wgt>
<wgt id='2028'>0.21609E+02</wgt>
<wgt id='2029'>0.21816E+02</wgt>
<wgt id='2030'>0.21691E+02</wgt>
<wgt id='2031'>0.21744E+02</wgt>
<wgt id='2032'>0.21654E+02</wgt>
<wgt id='2033'>0.21697E+02</wgt>
<wgt id='2034'>0.21785E+02</wgt>
<wgt id='2035'>0.21685E+02</wgt>
<wgt id='2036'>0.21712E+02</wgt>
<wgt id='2037'>0.21749E+02</wgt>
<wgt id='2038'>0.21684E+02</wgt>
<wgt id='2039'>0.21636E+02</wgt>
<wgt id='2040'>0.21701E+02</wgt>
<wgt id='2041'>0.21699E+02</wgt>
<wgt id='2042'>0.21673E+02</wgt>
<wgt id='2043'>0.21691E+02</wgt>
<wgt id='2044'>0.21730E+02</wgt>
<wgt id='2045'>0.21678E+02</wgt>
<wgt id='2046'>0.21723E+02</wgt>
<wgt id='2047'>0.21733E+02</wgt>
<wgt id='2048'>0.21673E+02</wgt>
<wgt id='2049'>0.21686E+02</wgt>
<wgt id='2050'>0.21705E+02</wgt>
<wgt id='2051'>0.21740E+02</wgt>
<wgt id='2052'>0.21701E+02</wgt>
<wgt id='2053'>0.21708E+02</wgt>
<wgt id='2054'>0.21704E+02</wgt>
<wgt id='2055'>0.21692E+02</wgt>
<wgt id='2056'>0.21697E+02</wgt>
<wgt id='2057'>0.21716E+02</wgt>
<wgt id='2058'>0.21705E+02</wgt>
<wgt id='2059'>0.21690E+02</wgt>
<wgt id='2060'>0.21700E+02</wgt>
<wgt id='2061'>0.21680E+02</wgt>
<wgt id='2062'>0.21696E+02</wgt>
<wgt id='2063'>0.21698E+02</wgt>
<wgt id='2064'>0.21683E+02</wgt>
<wgt id='2065'>0.21710E+02</wgt>
<wgt id='2066'>0.21687E+02</wgt>
<wgt id='2067'>0.21697E+02</wgt>
<wgt id='2068'>0.21704E+02</wgt>
<wgt id='2069'>0.21701E+02</wgt>
<wgt id='2070'>0.21689E+02</wgt>
<wgt id='2071'>0.21686E+02</wgt>
<wgt id='2072'>0.21698E+02</wgt>
<wgt id='2073'>0.21698E+02</wgt>
<wgt id='2074'>0.21697E+02</wgt>
<wgt id='2075'>0.21692E+02</wgt>
<wgt id='2076'>0.21696E+02</wgt>
<wgt id='2077'>0.21691E+02</wgt>
<wgt id='2078'>0.21693E+02</wgt>
<wgt id='2079'>0.21699E+02</wgt>
<wgt id='2080'>0.21699E+02</wgt>
<wgt id='2081'>0.21700E+02</wgt>
<wgt id='2082'>0.21700E+02</wgt>
<wgt id='2083'>0.21697E+02</wgt>
<wgt id='2084'>0.21698E+02</wgt>
<wgt id='2085'>0.21696E+02</wgt>
<wgt id='2086'>0.21692E+02</wgt>
<wgt id='2087'>0.21692E+02</wgt>
<wgt id='2088'>0.21699E+02</wgt>
<wgt id='2089'>0.21692E+02</wgt>
<wgt id='2090'>0.21694E+02</wgt>
<wgt id='2091'>0.21696E+02</wgt>
<wgt id='2092'>0.21696E+02</wgt>
<wgt id='2093'>0.21694E+02</wgt>
<wgt id='2094'>0.21697E+02</wgt>
<wgt id='2095'>0.21698E+02</wgt>
<wgt id='2096'>0.21692E+02</wgt>
<wgt id='2097'>0.21701E+02</wgt>
<wgt id='2098'>0.21693E+02</wgt>
<wgt id='2099'>0.21694E+02</wgt>
<wgt id='2100'>0.21697E+02</wgt>
<wgt id='2101'>0.20796E+02</wgt>
<wgt id='2102'>0.22604E+02</wgt>
<wgt id='2104'>0.17640E+02</wgt>
<wgt id='2105'>0.18414E+02</wgt>
<wgt id='2106'>0.19249E+02</wgt>
<wgt id='2107'>0.20009E+02</wgt>
<wgt id='2108'>0.21271E+02</wgt>
<wgt id='2109'>0.22137E+02</wgt>
<wgt id='2110'>0.23386E+02</wgt>
<wgt id='2111'>0.24280E+02</wgt>
<wgt id='3000'>0.22833E+02</wgt>
<wgt id='3001'>0.22828E+02</wgt>
<wgt id='3002'>0.22846E+02</wgt>
<wgt id='3003'>0.22811E+02</wgt>
<wgt id='3004'>0.22885E+02</wgt>
<wgt id='3005'>0.22830E+02</wgt>
<wgt id='3006'>0.22806E+02</wgt>
<wgt id='3007'>0.22862E+02</wgt>
<wgt id='3008'>0.22843E+02</wgt>
<wgt id='3009'>0.22891E+02</wgt>
<wgt id='3010'>0.22829E+02</wgt>
<wgt id='3011'>0.22776E+02</wgt>
<wgt id='3012'>0.22802E+02</wgt>
<wgt id='3013'>0.22921E+02</wgt>
<wgt id='3014'>0.22815E+02</wgt>
<wgt id='3015'>0.22772E+02</wgt>
<wgt id='3016'>0.22833E+02</wgt>
<wgt id='3017'>0.22802E+02</wgt>
<wgt id='3018'>0.22871E+02</wgt>
<wgt id='3019'>0.22866E+02</wgt>
<wgt id='3020'>0.22812E+02</wgt>
<wgt id='3021'>0.22819E+02</wgt>
<wgt id='3022'>0.22834E+02</wgt>
<wgt id='3023'>0.22805E+02</wgt>
<wgt id='3024'>0.22764E+02</wgt>
<wgt id='3025'>0.22859E+02</wgt>
<wgt id='3026'>0.22870E+02</wgt>
<wgt id='3027'>0.22838E+02</wgt>
<wgt id='3028'>0.22724E+02</wgt>
<wgt id='3029'>0.22738E+02</wgt>
<wgt id='3030'>0.22964E+02</wgt>
<wgt id='3031'>0.22901E+02</wgt>
<wgt id='3032'>0.22883E+02</wgt>
<wgt id='3033'>0.22925E+02</wgt>
<wgt id='3034'>0.22853E+02</wgt>
<wgt id='3035'>0.22948E+02</wgt>
<wgt id='3036'>0.22860E+02</wgt>
<wgt id='3037'>0.22821E+02</wgt>
<wgt id='3038'>0.22840E+02</wgt>
<wgt id='3039'>0.22805E+02</wgt>
<wgt id='3040'>0.22817E+02</wgt>
<wgt id='3041'>0.22865E+02</wgt>
<wgt id='3042'>0.22796E+02</wgt>
<wgt id='3043'>0.22793E+02</wgt>
<wgt id='3044'>0.22836E+02</wgt>
<wgt id='3045'>0.22860E+02</wgt>
<wgt id='3046'>0.22868E+02</wgt>
<wgt id='3047'>0.22834E+02</wgt>
<wgt id='3048'>0.22847E+02</wgt>
<wgt id='3049'>0.22828E+02</wgt>
<wgt id='3050'>0.22821E+02</wgt>
<wgt id='3051'>0.22870E+02</wgt>
<wgt id='3052'>0.22813E+02</wgt>
<wgt id='3053'>0.22822E+02</wgt>
<wgt id='3054'>0.22834E+02</wgt>
<wgt id='3055'>0.22794E+02</wgt>
<wgt id='3056'>0.22838E+02</wgt>
<wgt id='3057'>0.22822E+02</wgt>
<wgt id='3058'>0.22812E+02</wgt>
<wgt id='3059'>0.22834E+02</wgt>
<wgt id='3060'>0.22842E+02</wgt>
<wgt id='3061'>0.22836E+02</wgt>
<wgt id='3062'>0.22839E+02</wgt>
<wgt id='3063'>0.22849E+02</wgt>
<wgt id='3064'>0.22822E+02</wgt>
<wgt id='3065'>0.22832E+02</wgt>
<wgt id='3066'>0.22839E+02</wgt>
<wgt id='3067'>0.22818E+02</wgt>
<wgt id='3068'>0.22840E+02</wgt>
<wgt id='3069'>0.22826E+02</wgt>
<wgt id='3070'>0.22839E+02</wgt>
<wgt id='3071'>0.22829E+02</wgt>
<wgt id='3072'>0.22831E+02</wgt>
<wgt id='3073'>0.22820E+02</wgt>
<wgt id='3074'>0.22845E+02</wgt>
<wgt id='3075'>0.22831E+02</wgt>
<wgt id='3076'>0.22831E+02</wgt>
<wgt id='3077'>0.22838E+02</wgt>
<wgt id='3078'>0.22838E+02</wgt>
<wgt id='3079'>0.22830E+02</wgt>
<wgt id='3080'>0.22830E+02</wgt>
<wgt id='3081'>0.22833E+02</wgt>
<wgt id='3082'>0.22828E+02</wgt>
<wgt id='3083'>0.22835E+02</wgt>
<wgt id='3084'>0.22831E+02</wgt>
<wgt id='3085'>0.22835E+02</wgt>
<wgt id='3086'>0.22828E+02</wgt>
<wgt id='3087'>0.22830E+02</wgt>
<wgt id='3088'>0.22832E+02</wgt>
<wgt id='3089'>0.22833E+02</wgt>
<wgt id='3090'>0.22835E+02</wgt>
<wgt id='3091'>0.22834E+02</wgt>
<wgt id='3092'>0.22833E+02</wgt>
<wgt id='3093'>0.22834E+02</wgt>
<wgt id='3094'>0.22838E+02</wgt>
<wgt id='3095'>0.22834E+02</wgt>
<wgt id='3096'>0.22830E+02</wgt>
<wgt id='3097'>0.22828E+02</wgt>
<wgt id='3098'>0.22830E+02</wgt>
<wgt id='3099'>0.22836E+02</wgt>
<wgt id='3100'>0.22834E+02</wgt>
<wgt id='3101'>0.21886E+02</wgt>
<wgt id='3102'>0.23727E+02</wgt>
<wgt id='5000'>0.21377E+02</wgt>
<wgt id='5001'>0.21437E+02</wgt>
<wgt id='5002'>0.21433E+02</wgt>
<wgt id='5003'>0.21423E+02</wgt>
<wgt id='5004'>0.21244E+02</wgt>
<wgt id='5005'>0.21118E+02</wgt>
<wgt id='5006'>0.20652E+02</wgt>
<wgt id='5007'>0.21037E+02</wgt>
<wgt id='5008'>0.21553E+02</wgt>
<wgt id='5009'>0.21176E+02</wgt>
<wgt id='5010'>0.21392E+02</wgt>
<wgt id='5011'>0.21476E+02</wgt>
<wgt id='5012'>0.21343E+02</wgt>
<wgt id='5013'>0.21736E+02</wgt>
<wgt id='5014'>0.21720E+02</wgt>
<wgt id='5015'>0.21351E+02</wgt>
<wgt id='5016'>0.21454E+02</wgt>
<wgt id='5017'>0.20942E+02</wgt>
<wgt id='5018'>0.21840E+02</wgt>
<wgt id='5019'>0.21729E+02</wgt>
<wgt id='5020'>0.21051E+02</wgt>
<wgt id='5021'>0.21317E+02</wgt>
<wgt id='5022'>0.21414E+02</wgt>
<wgt id='5023'>0.21254E+02</wgt>
<wgt id='5024'>0.21512E+02</wgt>
<wgt id='5025'>0.21528E+02</wgt>
<wgt id='5026'>0.21253E+02</wgt>
<wgt id='5027'>0.21434E+02</wgt>
<wgt id='5028'>0.21279E+02</wgt>
<wgt id='5029'>0.21308E+02</wgt>
<wgt id='5030'>0.21421E+02</wgt>
<wgt id='5031'>0.21283E+02</wgt>
<wgt id='5032'>0.21517E+02</wgt>
<wgt id='5033'>0.21396E+02</wgt>
<wgt id='5034'>0.21359E+02</wgt>
<wgt id='5035'>0.21676E+02</wgt>
<wgt id='5036'>0.21108E+02</wgt>
<wgt id='5037'>0.20712E+02</wgt>
<wgt id='5038'>0.22134E+02</wgt>
<wgt id='5039'>0.21926E+02</wgt>
<wgt id='5040'>0.21076E+02</wgt>
<wgt id='5041'>0.21490E+02</wgt>
<wgt id='5042'>0.21321E+02</wgt>
<wgt id='5043'>0.21464E+02</wgt>
<wgt id='5044'>0.21431E+02</wgt>
<wgt id='5045'>0.21540E+02</wgt>
<wgt id='5046'>0.20733E+02</wgt>
<wgt id='5047'>0.21456E+02</wgt>
<wgt id='5048'>0.21106E+02</wgt>
<wgt id='5049'>0.21405E+02</wgt>
<wgt id='5050'>0.21325E+02</wgt>
<wgt id='5051'>0.21351E+02</wgt>
<wgt id='5052'>0.21376E+02</wgt>
<wgt id='5053'>0.20750E+02</wgt>
<wgt id='5054'>0.20847E+02</wgt>
<wgt id='5055'>0.21171E+02</wgt>
<wgt id='5056'>0.21838E+02</wgt>
<wgt id='5060'>0.20407E+02</wgt>
<wgt id='5070'>0.22396E+02</wgt>
<wgt id='4000'>0.21678E+02</wgt>
<wgt id='4001'>0.21646E+02</wgt>
<wgt id='4002'>0.21683E+02</wgt>
<wgt id='4003'>0.21160E+02</wgt>
<wgt id='4004'>0.21462E+02</wgt>
<wgt id='4005'>0.21595E+02</wgt>
<wgt id='4006'>0.21770E+02</wgt>
<wgt id='4007'>0.21721E+02</wgt>
<wgt id='4008'>0.21397E+02</wgt>
<wgt id='4009'>0.21791E+02</wgt>
<wgt id='4010'>0.21480E+02</wgt>
<wgt id='4011'>0.22133E+02</wgt>
<wgt id='4012'>0.21326E+02</wgt>
<wgt id='4013'>0.21741E+02</wgt>
<wgt id='4014'>0.21680E+02</wgt>
<wgt id='4015'>0.22231E+02</wgt>
<wgt id='4016'>0.21300E+02</wgt>
<wgt id='4017'>0.21215E+02</wgt>
<wgt id='4018'>0.22228E+02</wgt>
<wgt id='4019'>0.21881E+02</wgt>
<wgt id='4020'>0.21471E+02</wgt>
<wgt id='4021'>0.21758E+02</wgt>
<wgt id='4022'>0.21523E+02</wgt>
<wgt id='4023'>0.21646E+02</wgt>
<wgt id='4024'>0.21715E+02</wgt>
<wgt id='4025'>0.22253E+02</wgt>
<wgt id='4026'>0.21133E+02</wgt>
<wgt id='4027'>0.21741E+02</wgt>
<wgt id='4028'>0.21596E+02</wgt>
<wgt id='4029'>0.21693E+02</wgt>
<wgt id='4030'>0.21675E+02</wgt>
<wgt id='4031'>0.21775E+02</wgt>
<wgt id='4032'>0.21553E+02</wgt>
<wgt id='4033'>0.21479E+02</wgt>
<wgt id='4034'>0.22121E+02</wgt>
<wgt id='4035'>0.21285E+02</wgt>
<wgt id='4036'>0.22078E+02</wgt>
<wgt id='4037'>0.21623E+02</wgt>
<wgt id='4038'>0.21775E+02</wgt>
<wgt id='4039'>0.21676E+02</wgt>
<wgt id='4040'>0.21735E+02</wgt>
<wgt id='4041'>0.21565E+02</wgt>
<wgt id='4042'>0.21815E+02</wgt>
<wgt id='4043'>0.21568E+02</wgt>
<wgt id='4044'>0.22047E+02</wgt>
<wgt id='4045'>0.21583E+02</wgt>
<wgt id='4046'>0.21834E+02</wgt>
<wgt id='4047'>0.21717E+02</wgt>
<wgt id='4048'>0.21055E+02</wgt>
<wgt id='4049'>0.21092E+02</wgt>
<wgt id='4050'>0.21719E+02</wgt>
<wgt id='4051'>0.21743E+02</wgt>
<wgt id='4052'>0.21727E+02</wgt>
<wgt id='4053'>0.20974E+02</wgt>
<wgt id='4054'>0.21980E+02</wgt>
<wgt id='4055'>0.21490E+02</wgt>
<wgt id='4056'>0.22071E+02</wgt>
<wgt id='4060'>0.20752E+02</wgt>
<wgt id='4070'>0.22660E+02</wgt>
<wgt id='4080'>0.19660E+02</wgt>
<wgt id='6000'>0.22273E+02</wgt>
<wgt id='6001'>0.22288E+02</wgt>
<wgt id='6002'>0.22256E+02</wgt>
<wgt id='6003'>0.22299E+02</wgt>
<wgt id='6004'>0.22255E+02</wgt>
<wgt id='6005'>0.22412E+02</wgt>
<wgt id='6006'>0.22144E+02</wgt>
<wgt id='6007'>0.22186E+02</wgt>
<wgt id='6008'>0.22369E+02</wgt>
<wgt id='6009'>0.22295E+02</wgt>
<wgt id='6010'>0.22251E+02</wgt>
<wgt id='6011'>0.22293E+02</wgt>
<wgt id='6012'>0.22229E+02</wgt>
<wgt id='6013'>0.22265E+02</wgt>
<wgt id='6014'>0.22285E+02</wgt>
<wgt id='6015'>0.22240E+02</wgt>
<wgt id='6016'>0.22291E+02</wgt>
<wgt id='6017'>0.22184E+02</wgt>
<wgt id='6018'>0.22377E+02</wgt>
<wgt id='6019'>0.22280E+02</wgt>
<wgt id='6020'>0.22265E+02</wgt>
<wgt id='6021'>0.22227E+02</wgt>
<wgt id='6022'>0.22332E+02</wgt>
<wgt id='6023'>0.22141E+02</wgt>
<wgt id='6024'>0.22360E+02</wgt>
<wgt id='6025'>0.22346E+02</wgt>
<wgt id='6026'>0.22203E+02</wgt>
<wgt id='6027'>0.22284E+02</wgt>
<wgt id='6028'>0.22261E+02</wgt>
<wgt id='6029'>0.22175E+02</wgt>
<wgt id='6030'>0.22390E+02</wgt>
<wgt id='6031'>0.21999E+02</wgt>
<wgt id='6032'>0.22581E+02</wgt>
<wgt id='6033'>0.22388E+02</wgt>
<wgt id='6034'>0.22161E+02</wgt>
<wgt id='6035'>0.22318E+02</wgt>
<wgt id='6036'>0.22156E+02</wgt>
<wgt id='6037'>0.22291E+02</wgt>
<wgt id='6038'>0.22265E+02</wgt>
<wgt id='6039'>0.22211E+02</wgt>
<wgt id='6040'>0.22343E+02</wgt>
<wgt id='6041'>0.22079E+02</wgt>
<wgt id='6042'>0.22491E+02</wgt>
<wgt id='6043'>0.22459E+02</wgt>
<wgt id='6044'>0.22173E+02</wgt>
<wgt id='6045'>0.22245E+02</wgt>
<wgt id='6046'>0.22341E+02</wgt>
<wgt id='6047'>0.22635E+02</wgt>
<wgt id='6048'>0.21799E+02</wgt>
<wgt id='6049'>0.22437E+02</wgt>
<wgt id='6050'>0.22190E+02</wgt>
<wgt id='7000'>0.21246E+02</wgt>
<wgt id='7001'>0.21240E+02</wgt>
<wgt id='7002'>0.21257E+02</wgt>
<wgt id='7003'>0.21320E+02</wgt>
<wgt id='7004'>0.21173E+02</wgt>
<wgt id='7005'>0.21317E+02</wgt>
<wgt id='7006'>0.21218E+02</wgt>
<wgt id='7007'>0.21233E+02</wgt>
<wgt id='7008'>0.21259E+02</wgt>
<wgt id='7009'>0.21262E+02</wgt>
<wgt id='7010'>0.21231E+02</wgt>
<wgt id='7011'>0.21193E+02</wgt>
<wgt id='7012'>0.21270E+02</wgt>
<wgt id='7013'>0.21244E+02</wgt>
<wgt id='7014'>0.21250E+02</wgt>
<wgt id='7015'>0.21243E+02</wgt>
<wgt id='7016'>0.21249E+02</wgt>
<wgt id='7017'>0.21271E+02</wgt>
<wgt id='7018'>0.21233E+02</wgt>
<wgt id='7019'>0.21254E+02</wgt>
<wgt id='7020'>0.21237E+02</wgt>
<wgt id='7021'>0.21203E+02</wgt>
<wgt id='7022'>0.21277E+02</wgt>
<wgt id='7023'>0.21436E+02</wgt>
<wgt id='7024'>0.21069E+02</wgt>
<wgt id='7025'>0.21305E+02</wgt>
<wgt id='7026'>0.21099E+02</wgt>
<wgt id='7027'>0.21254E+02</wgt>
<wgt id='7028'>0.21215E+02</wgt>
<wgt id='7029'>0.21323E+02</wgt>
<wgt id='7030'>0.21065E+02</wgt>
<wgt id='7031'>0.21136E+02</wgt>
<wgt id='7032'>0.21475E+02</wgt>
<wgt id='7033'>0.21283E+02</wgt>
<wgt id='7034'>0.21172E+02</wgt>
<wgt id='7035'>0.21090E+02</wgt>
<wgt id='7036'>0.21311E+02</wgt>
<wgt id='7037'>0.21237E+02</wgt>
<wgt id='7038'>0.21245E+02</wgt>
<wgt id='7039'>0.21160E+02</wgt>
<wgt id='7040'>0.21312E+02</wgt>
<wgt id='7041'>0.21274E+02</wgt>
<wgt id='7042'>0.21197E+02</wgt>
<wgt id='7043'>0.21267E+02</wgt>
<wgt id='7044'>0.21125E+02</wgt>
<wgt id='7045'>0.20895E+02</wgt>
<wgt id='7046'>0.21498E+02</wgt>
<wgt id='7047'>0.21404E+02</wgt>
<wgt id='7048'>0.21177E+02</wgt>
<wgt id='7049'>0.21069E+02</wgt>
<wgt id='7050'>0.21363E+02</wgt>
<wgt id='7060'>0.28616E+02</wgt>
<wgt id='8000'>0.21165E+02</wgt>
<wgt id='8001'>0.21162E+02</wgt>
<wgt id='8002'>0.21172E+02</wgt>
<wgt id='8003'>0.21165E+02</wgt>
<wgt id='8004'>0.21164E+02</wgt>
<wgt id='8005'>0.21126E+02</wgt>
<wgt id='8006'>0.21196E+02</wgt>
<wgt id='8007'>0.21224E+02</wgt>
<wgt id='8008'>0.21218E+02</wgt>
<wgt id='8009'>0.21263E+02</wgt>
<wgt id='8010'>0.21135E+02</wgt>
<wgt id='8011'>0.21173E+02</wgt>
<wgt id='8012'>0.21069E+02</wgt>
<wgt id='8013'>0.21108E+02</wgt>
<wgt id='8014'>0.21233E+02</wgt>
<wgt id='8015'>0.21152E+02</wgt>
<wgt id='8016'>0.21190E+02</wgt>
<wgt id='8017'>0.21174E+02</wgt>
<wgt id='8018'>0.21235E+02</wgt>
<wgt id='8019'>0.21174E+02</wgt>
<wgt id='8020'>0.21165E+02</wgt>
<wgt id='8021'>0.21142E+02</wgt>
<wgt id='8022'>0.21163E+02</wgt>
<wgt id='8023'>0.21131E+02</wgt>
<wgt id='8024'>0.21072E+02</wgt>
<wgt id='8025'>0.21137E+02</wgt>
<wgt id='8026'>0.21192E+02</wgt>
<wgt id='8027'>0.21190E+02</wgt>
<wgt id='8028'>0.21181E+02</wgt>
<wgt id='8029'>0.21151E+02</wgt>
<wgt id='8500'>0.22478E+02</wgt>
<wgt id='8501'>0.22306E+02</wgt>
<wgt id='8502'>0.22637E+02</wgt>
<wgt id='8503'>0.22527E+02</wgt>
<wgt id='8504'>0.22362E+02</wgt>
<wgt id='8505'>0.22452E+02</wgt>
<wgt id='8506'>0.22672E+02</wgt>
<wgt id='8507'>0.22144E+02</wgt>
<wgt id='8508'>0.21945E+02</wgt>
<wgt id='8509'>0.22710E+02</wgt>
<wgt id='8510'>0.22756E+02</wgt>
<wgt id='8511'>0.22441E+02</wgt>
<wgt id='8512'>0.22474E+02</wgt>
<wgt id='8513'>0.22488E+02</wgt>
<wgt id='8514'>0.22072E+02</wgt>
<wgt id='8515'>0.22681E+02</wgt>
<wgt id='8516'>0.22389E+02</wgt>
<wgt id='8517'>0.22349E+02</wgt>
<wgt id='8518'>0.22325E+02</wgt>
<wgt id='8519'>0.22295E+02</wgt>
<wgt id='8520'>0.22379E+02</wgt>
<wgt id='8521'>0.22412E+02</wgt>
<wgt id='8522'>0.22574E+02</wgt>
<wgt id='8523'>0.22367E+02</wgt>
<wgt id='8524'>0.22504E+02</wgt>
<wgt id='8525'>0.22512E+02</wgt>
<wgt id='8526'>0.22438E+02</wgt>
<wgt id='8527'>0.22451E+02</wgt>
<wgt id='8528'>0.22455E+02</wgt>
<wgt id='8529'>0.22449E+02</wgt>
<wgt id='8530'>0.22514E+02</wgt>
<wgt id='8531'>0.22472E+02</wgt>
<wgt id='8532'>0.22476E+02</wgt>
<wgt id='8533'>0.22430E+02</wgt>
<wgt id='8534'>0.22485E+02</wgt>
<wgt id='8535'>0.22530E+02</wgt>
<wgt id='8536'>0.22467E+02</wgt>
<wgt id='8537'>0.22478E+02</wgt>
<wgt id='8538'>0.22477E+02</wgt>
<wgt id='8539'>0.22493E+02</wgt>
<wgt id='8540'>0.22497E+02</wgt>
<wgt id='8541'>0.22500E+02</wgt>
<wgt id='8542'>0.22491E+02</wgt>
<wgt id='8543'>0.22453E+02</wgt>
<wgt id='8544'>0.22510E+02</wgt>
<wgt id='8545'>0.22490E+02</wgt>
<wgt id='8546'>0.22504E+02</wgt>
<wgt id='8547'>0.22457E+02</wgt>
<wgt id='8548'>0.22471E+02</wgt>
<wgt id='8549'>0.22485E+02</wgt>
<wgt id='8550'>0.22458E+02</wgt>
<wgt id='8551'>0.22468E+02</wgt>
<wgt id='8552'>0.22459E+02</wgt>
<wgt id='8553'>0.22446E+02</wgt>
<wgt id='8554'>0.22464E+02</wgt>
<wgt id='8555'>0.22479E+02</wgt>
<wgt id='8556'>0.22469E+02</wgt>
<wgt id='8557'>0.22486E+02</wgt>
<wgt id='8558'>0.22507E+02</wgt>
<wgt id='8559'>0.22474E+02</wgt>
<wgt id='8560'>0.22448E+02</wgt>
<wgt id='8561'>0.22492E+02</wgt>
<wgt id='8562'>0.22466E+02</wgt>
<wgt id='8563'>0.22478E+02</wgt>
<wgt id='8564'>0.22468E+02</wgt>
<wgt id='8565'>0.22487E+02</wgt>
<wgt id='8566'>0.22491E+02</wgt>
<wgt id='8567'>0.22477E+02</wgt>
<wgt id='8568'>0.22496E+02</wgt>
<wgt id='8569'>0.22490E+02</wgt>
<wgt id='8570'>0.22471E+02</wgt>
<wgt id='8571'>0.22458E+02</wgt>
<wgt id='8572'>0.22463E+02</wgt>
<wgt id='8573'>0.22469E+02</wgt>
<wgt id='8574'>0.22465E+02</wgt>
<wgt id='8575'>0.22473E+02</wgt>
<wgt id='8576'>0.22480E+02</wgt>
<wgt id='8577'>0.22465E+02</wgt>
<wgt id='8578'>0.22473E+02</wgt>
<wgt id='8579'>0.22496E+02</wgt>
<wgt id='8580'>0.22476E+02</wgt>
<wgt id='8581'>0.22491E+02</wgt>
<wgt id='8582'>0.22466E+02</wgt>
<wgt id='8583'>0.22484E+02</wgt>
<wgt id='8584'>0.22494E+02</wgt>
<wgt id='8585'>0.22486E+02</wgt>
<wgt id='8586'>0.22503E+02</wgt>
<wgt id='8587'>0.22483E+02</wgt>
<wgt id='8588'>0.22479E+02</wgt>
<wgt id='8589'>0.22477E+02</wgt>
<wgt id='8590'>0.22481E+02</wgt>
<wgt id='8591'>0.22466E+02</wgt>
<wgt id='8592'>0.22476E+02</wgt>
<wgt id='8593'>0.22473E+02</wgt>
<wgt id='8594'>0.22474E+02</wgt>
<wgt id='8595'>0.22476E+02</wgt>
<wgt id='8596'>0.22477E+02</wgt>
<wgt id='8597'>0.22483E+02</wgt>
<wgt id='8598'>0.22483E+02</wgt>
<wgt id='8599'>0.22480E+02</wgt>
<wgt id='8600'>0.22479E+02</wgt>
<wgt id='8601'>0.21907E+02</wgt>
<wgt id='8602'>0.23062E+02</wgt>
<wgt id='9000'>0.21480E+02</wgt>
<wgt id='9001'>0.21455E+02</wgt>
<wgt id='9002'>0.21538E+02</wgt>
<wgt id='9003'>0.21382E+02</wgt>
<wgt id='9004'>0.21521E+02</wgt>
<wgt id='9005'>0.21607E+02</wgt>
<wgt id='9006'>0.21472E+02</wgt>
<wgt id='9007'>0.21329E+02</wgt>
<wgt id='9008'>0.21423E+02</wgt>
<wgt id='9009'>0.21495E+02</wgt>
<wgt id='9010'>0.21328E+02</wgt>
<wgt id='9011'>0.21648E+02</wgt>
<wgt id='9012'>0.21706E+02</wgt>
<wgt id='9013'>0.21394E+02</wgt>
<wgt id='9014'>0.21581E+02</wgt>
<wgt id='9015'>0.21420E+02</wgt>
<wgt id='9016'>0.21765E+02</wgt>
<wgt id='9017'>0.21262E+02</wgt>
<wgt id='9018'>0.21478E+02</wgt>
<wgt id='9019'>0.21540E+02</wgt>
<wgt id='9020'>0.21682E+02</wgt>
<wgt id='9021'>0.21474E+02</wgt>
<wgt id='9022'>0.21541E+02</wgt>
<wgt id='9023'>0.21307E+02</wgt>
<wgt id='9024'>0.21408E+02</wgt>
<wgt id='9025'>0.21529E+02</wgt>
<wgt id='9026'>0.21477E+02</wgt>
<wgt id='9027'>0.21469E+02</wgt>
<wgt id='9028'>0.21501E+02</wgt>
<wgt id='9029'>0.21504E+02</wgt>
<wgt id='9030'>0.21506E+02</wgt>
<wgt id='9031'>0.21451E+02</wgt>
<wgt id='9032'>0.21493E+02</wgt>
<wgt id='9033'>0.21500E+02</wgt>
<wgt id='9034'>0.21493E+02</wgt>
<wgt id='9035'>0.21501E+02</wgt>
<wgt id='9036'>0.21491E+02</wgt>
<wgt id='9037'>0.21496E+02</wgt>
<wgt id='9038'>0.21498E+02</wgt>
<wgt id='9039'>0.21481E+02</wgt>
<wgt id='9040'>0.21465E+02</wgt>
<wgt id='9041'>0.21485E+02</wgt>
<wgt id='9042'>0.21490E+02</wgt>
<wgt id='9043'>0.21449E+02</wgt>
<wgt id='9044'>0.21485E+02</wgt>
<wgt id='9045'>0.21491E+02</wgt>
<wgt id='9046'>0.21451E+02</wgt>
<wgt id='9047'>0.21491E+02</wgt>
<wgt id='9048'>0.21492E+02</wgt>
<wgt id='9049'>0.21468E+02</wgt>
<wgt id='9050'>0.21480E+02</wgt>
<wgt id='9051'>0.21496E+02</wgt>
<wgt id='9052'>0.21499E+02</wgt>
<wgt id='9053'>0.21477E+02</wgt>
<wgt id='9054'>0.21469E+02</wgt>
<wgt id='9055'>0.21466E+02</wgt>
<wgt id='9056'>0.21496E+02</wgt>
<wgt id='9057'>0.21485E+02</wgt>
<wgt id='9058'>0.21451E+02</wgt>
<wgt id='9059'>0.21466E+02</wgt>
<wgt id='9060'>0.21469E+02</wgt>
<wgt id='9061'>0.21481E+02</wgt>
<wgt id='9062'>0.21484E+02</wgt>
<wgt id='9063'>0.21487E+02</wgt>
<wgt id='9064'>0.21480E+02</wgt>
<wgt id='9065'>0.21475E+02</wgt>
<wgt id='9066'>0.21479E+02</wgt>
<wgt id='9067'>0.21488E+02</wgt>
<wgt id='9068'>0.21484E+02</wgt>
<wgt id='9069'>0.21500E+02</wgt>
<wgt id='9070'>0.21474E+02</wgt>
<wgt id='9071'>0.21497E+02</wgt>
<wgt id='9072'>0.21498E+02</wgt>
<wgt id='9073'>0.21475E+02</wgt>
<wgt id='9074'>0.21483E+02</wgt>
<wgt id='9075'>0.21479E+02</wgt>
<wgt id='9076'>0.21477E+02</wgt>
<wgt id='9077'>0.21487E+02</wgt>
<wgt id='9078'>0.21480E+02</wgt>
<wgt id='9079'>0.21477E+02</wgt>
<wgt id='9080'>0.21505E+02</wgt>
<wgt id='9081'>0.21479E+02</wgt>
<wgt id='9082'>0.21488E+02</wgt>
<wgt id='9083'>0.21472E+02</wgt>
<wgt id='9084'>0.21469E+02</wgt>
<wgt id='9085'>0.21468E+02</wgt>
<wgt id='9086'>0.21486E+02</wgt>
<wgt id='9087'>0.21457E+02</wgt>
<wgt id='9088'>0.21471E+02</wgt>
<wgt id='9089'>0.21471E+02</wgt>
<wgt id='9090'>0.21484E+02</wgt>
<wgt id='9091'>0.21474E+02</wgt>
<wgt id='9092'>0.21477E+02</wgt>
<wgt id='9093'>0.21474E+02</wgt>
<wgt id='9094'>0.21475E+02</wgt>
<wgt id='9095'>0.21482E+02</wgt>
<wgt id='9096'>0.21475E+02</wgt>
<wgt id='9097'>0.21482E+02</wgt>
<wgt id='9098'>0.21478E+02</wgt>
<wgt id='9099'>0.21474E+02</wgt>
<wgt id='9100'>0.21481E+02</wgt>
<wgt id='9101'>0.20939E+02</wgt>
<wgt id='9102'>0.22066E+02</wgt>
<wgt id='10000'>0.22478E+02</wgt>
<wgt id='10001'>0.22623E+02</wgt>
<wgt id='10002'>0.22164E+02</wgt>
<wgt id='10003'>0.22456E+02</wgt>
<wgt id='10004'>0.21900E+02</wgt>
<wgt id='10005'>0.22533E+02</wgt>
<wgt id='10006'>0.22311E+02</wgt>
<wgt id='10007'>0.22470E+02</wgt>
<wgt id='10008'>0.22578E+02</wgt>
<wgt id='10009'>0.22333E+02</wgt>
<wgt id='10010'>0.22584E+02</wgt>
<wgt id='10011'>0.22293E+02</wgt>
<wgt id='10012'>0.22480E+02</wgt>
<wgt id='10013'>0.22524E+02</wgt>
<wgt id='10014'>0.22420E+02</wgt>
<wgt id='10015'>0.22459E+02</wgt>
<wgt id='10016'>0.22329E+02</wgt>
<wgt id='10017'>0.22769E+02</wgt>
<wgt id='10018'>0.22540E+02</wgt>
<wgt id='10019'>0.22394E+02</wgt>
<wgt id='10020'>0.22377E+02</wgt>
<wgt id='10021'>0.22442E+02</wgt>
<wgt id='10022'>0.22441E+02</wgt>
<wgt id='10023'>0.22497E+02</wgt>
<wgt id='10024'>0.22433E+02</wgt>
<wgt id='10025'>0.22448E+02</wgt>
<wgt id='10026'>0.22628E+02</wgt>
<wgt id='10027'>0.22571E+02</wgt>
<wgt id='10028'>0.22914E+02</wgt>
<wgt id='10029'>0.22494E+02</wgt>
<wgt id='10030'>0.22463E+02</wgt>
<wgt id='10031'>0.21907E+02</wgt>
<wgt id='10032'>0.23062E+02</wgt>
<wgt id='11000'>0.21480E+02</wgt>
<wgt id='11001'>0.20932E+02</wgt>
<wgt id='11002'>0.21540E+02</wgt>
<wgt id='11003'>0.21470E+02</wgt>
<wgt id='11004'>0.21559E+02</wgt>
<wgt id='11005'>0.21486E+02</wgt>
<wgt id='11006'>0.21497E+02</wgt>
<wgt id='11007'>0.21450E+02</wgt>
<wgt id='11008'>0.21481E+02</wgt>
<wgt id='11009'>0.21435E+02</wgt>
<wgt id='11010'>0.21330E+02</wgt>
<wgt id='11011'>0.21448E+02</wgt>
<wgt id='11012'>0.21478E+02</wgt>
<wgt id='11013'>0.21507E+02</wgt>
<wgt id='11014'>0.21456E+02</wgt>
<wgt id='11015'>0.21463E+02</wgt>
<wgt id='11016'>0.21481E+02</wgt>
<wgt id='11017'>0.21550E+02</wgt>
<wgt id='11018'>0.21464E+02</wgt>
<wgt id='11019'>0.21467E+02</wgt>
<wgt id='11020'>0.21547E+02</wgt>
<wgt id='11021'>0.21497E+02</wgt>
<wgt id='11022'>0.21634E+02</wgt>
<wgt id='11023'>0.21496E+02</wgt>
<wgt id='11024'>0.21513E+02</wgt>
<wgt id='11025'>0.21486E+02</wgt>
<wgt id='11026'>0.21481E+02</wgt>
<wgt id='11027'>0.21489E+02</wgt>
<wgt id='11028'>0.21511E+02</wgt>
<wgt id='11029'>0.21486E+02</wgt>
<wgt id='11030'>0.21477E+02</wgt>
<wgt id='11031'>0.20939E+02</wgt>
<wgt id='11032'>0.22066E+02</wgt>
<wgt id='12000'>0.21030E+02</wgt>
<wgt id='12001'>0.21000E+02</wgt>
<wgt id='12002'>0.21061E+02</wgt>
<wgt id='12003'>0.21039E+02</wgt>
<wgt id='12004'>0.21022E+02</wgt>
<wgt id='12005'>0.21064E+02</wgt>
<wgt id='12006'>0.20997E+02</wgt>
<wgt id='12007'>0.21158E+02</wgt>
<wgt id='12008'>0.20905E+02</wgt>
<wgt id='12009'>0.20995E+02</wgt>
<wgt id='12010'>0.21066E+02</wgt>
<wgt id='12011'>0.20858E+02</wgt>
<wgt id='12012'>0.21222E+02</wgt>
<wgt id='12013'>0.20963E+02</wgt>
<wgt id='12014'>0.21099E+02</wgt>
<wgt id='12015'>0.21086E+02</wgt>
<wgt id='12016'>0.20935E+02</wgt>
<wgt id='12017'>0.21149E+02</wgt>
<wgt id='12018'>0.20960E+02</wgt>
<wgt id='12019'>0.21059E+02</wgt>
<wgt id='12020'>0.20980E+02</wgt>
<wgt id='12021'>0.21055E+02</wgt>
<wgt id='12022'>0.21008E+02</wgt>
<wgt id='12023'>0.20815E+02</wgt>
<wgt id='12024'>0.21214E+02</wgt>
<wgt id='12025'>0.20924E+02</wgt>
<wgt id='12026'>0.21146E+02</wgt>
<wgt id='12027'>0.21373E+02</wgt>
<wgt id='12028'>0.20714E+02</wgt>
<wgt id='12050'>0.21030E+02</wgt>
<wgt id='12051'>0.21133E+02</wgt>
<wgt id='12052'>0.20869E+02</wgt>
<wgt id='12053'>0.21137E+02</wgt>
<wgt id='12054'>0.20923E+02</wgt>
<wgt id='12055'>0.21023E+02</wgt>
<wgt id='12056'>0.21201E+02</wgt>
<wgt id='12057'>0.21026E+02</wgt>
<wgt id='12058'>0.21051E+02</wgt>
<wgt id='12059'>0.21190E+02</wgt>
<wgt id='12060'>0.20881E+02</wgt>
<wgt id='12061'>0.20915E+02</wgt>
<wgt id='12062'>0.20956E+02</wgt>
<wgt id='12063'>0.20981E+02</wgt>
<wgt id='13000'>0.21158E+02</wgt>
<wgt id='13001'>0.21129E+02</wgt>
<wgt id='13002'>0.21180E+02</wgt>
<wgt id='13003'>0.21142E+02</wgt>
<wgt id='13004'>0.21168E+02</wgt>
<wgt id='13005'>0.21179E+02</wgt>
<wgt id='13006'>0.21130E+02</wgt>
<wgt id='13007'>0.21304E+02</wgt>
<wgt id='13008'>0.21010E+02</wgt>
<wgt id='13009'>0.21037E+02</wgt>
<wgt id='13010'>0.21277E+02</wgt>
<wgt id='13011'>0.21239E+02</wgt>
<wgt id='13012'>0.21072E+02</wgt>
<wgt id='13013'>0.21126E+02</wgt>
<wgt id='13014'>0.21181E+02</wgt>
<wgt id='13015'>0.21140E+02</wgt>
<wgt id='13016'>0.21101E+02</wgt>
<wgt id='13017'>0.21165E+02</wgt>
<wgt id='13018'>0.21146E+02</wgt>
<wgt id='13019'>0.21121E+02</wgt>
<wgt id='13020'>0.21193E+02</wgt>
<wgt id='13021'>0.21251E+02</wgt>
<wgt id='13022'>0.21060E+02</wgt>
<wgt id='13023'>0.21025E+02</wgt>
<wgt id='13024'>0.21290E+02</wgt>
<wgt id='13025'>0.20827E+02</wgt>
<wgt id='13026'>0.21470E+02</wgt>
<wgt id='13027'>0.21018E+02</wgt>
<wgt id='13028'>0.21306E+02</wgt>
<wgt id='13050'>0.21158E+02</wgt>
<wgt id='13051'>0.21251E+02</wgt>
<wgt id='13052'>0.20930E+02</wgt>
<wgt id='13053'>0.21240E+02</wgt>
<wgt id='13054'>0.21084E+02</wgt>
<wgt id='13055'>0.20775E+02</wgt>
<wgt id='13056'>0.21031E+02</wgt>
<wgt id='13057'>0.21138E+02</wgt>
<wgt id='13058'>0.21240E+02</wgt>
<wgt id='13059'>0.21262E+02</wgt>
<wgt id='13060'>0.20534E+02</wgt>
<wgt id='13061'>0.21119E+02</wgt>
<wgt id='13062'>0.21256E+02</wgt>
<wgt id='13063'>0.21298E+02</wgt>
<wgt id='14000'>0.21641E+02</wgt>
<wgt id='14001'>0.21638E+02</wgt>
<wgt id='14002'>0.21636E+02</wgt>
<wgt id='14003'>0.21634E+02</wgt>
<wgt id='14004'>0.21631E+02</wgt>
<wgt id='14005'>0.21629E+02</wgt>
<wgt id='14006'>0.21627E+02</wgt>
<wgt id='14007'>0.21625E+02</wgt>
<wgt id='14008'>0.21622E+02</wgt>
<wgt id='14009'>0.21620E+02</wgt>
<wgt id='14010'>0.21618E+02</wgt>
<wgt id='14011'>0.21615E+02</wgt>
<wgt id='14012'>0.21613E+02</wgt>
<wgt id='14013'>0.21611E+02</wgt>
<wgt id='14014'>0.21609E+02</wgt>
<wgt id='14015'>0.21606E+02</wgt>
<wgt id='14016'>0.21604E+02</wgt>
<wgt id='14017'>0.21602E+02</wgt>
<wgt id='14018'>0.21599E+02</wgt>
<wgt id='14019'>0.21597E+02</wgt>
<wgt id='14020'>0.21595E+02</wgt>
<wgt id='14021'>0.21593E+02</wgt>
<wgt id='14022'>0.21590E+02</wgt>
<wgt id='14023'>0.21588E+02</wgt>
<wgt id='14024'>0.21586E+02</wgt>
<wgt id='14025'>0.21583E+02</wgt>
<wgt id='14026'>0.21581E+02</wgt>
<wgt id='14027'>0.21579E+02</wgt>
<wgt id='14028'>0.21577E+02</wgt>
<wgt id='14029'>0.21574E+02</wgt>
<wgt id='14030'>0.21572E+02</wgt>
<wgt id='15000'>0.21220E+02</wgt>
<wgt id='15001'>0.21193E+02</wgt>
<wgt id='15002'>0.21274E+02</wgt>
<wgt id='15003'>0.21128E+02</wgt>
<wgt id='15004'>0.21261E+02</wgt>
<wgt id='15005'>0.21347E+02</wgt>
<wgt id='15006'>0.21216E+02</wgt>
<wgt id='15007'>0.21072E+02</wgt>
<wgt id='15008'>0.21163E+02</wgt>
<wgt id='15009'>0.21236E+02</wgt>
<wgt id='15010'>0.21072E+02</wgt>
<wgt id='15011'>0.21389E+02</wgt>
<wgt id='15012'>0.21443E+02</wgt>
<wgt id='15013'>0.21140E+02</wgt>
<wgt id='15014'>0.21316E+02</wgt>
<wgt id='15015'>0.21152E+02</wgt>
<wgt id='15016'>0.21504E+02</wgt>
<wgt id='15017'>0.21005E+02</wgt>
<wgt id='15018'>0.21218E+02</wgt>
<wgt id='15019'>0.21282E+02</wgt>
<wgt id='15020'>0.21424E+02</wgt>
<wgt id='15021'>0.21210E+02</wgt>
<wgt id='15022'>0.21281E+02</wgt>
<wgt id='15023'>0.21049E+02</wgt>
<wgt id='15024'>0.21146E+02</wgt>
<wgt id='15025'>0.21266E+02</wgt>
<wgt id='15026'>0.21214E+02</wgt>
<wgt id='15027'>0.21211E+02</wgt>
<wgt id='15028'>0.21242E+02</wgt>
<wgt id='15029'>0.21242E+02</wgt>
<wgt id='15030'>0.21244E+02</wgt>
<wgt id='15031'>0.21195E+02</wgt>
<wgt id='15032'>0.21232E+02</wgt>
<wgt id='15033'>0.21240E+02</wgt>
<wgt id='15034'>0.21232E+02</wgt>
<wgt id='15035'>0.21240E+02</wgt>
<wgt id='15036'>0.21231E+02</wgt>
<wgt id='15037'>0.21237E+02</wgt>
<wgt id='15038'>0.21238E+02</wgt>
<wgt id='15039'>0.21220E+02</wgt>
<wgt id='15040'>0.21205E+02</wgt>
<wgt id='15041'>0.21223E+02</wgt>
<wgt id='15042'>0.21228E+02</wgt>
<wgt id='15043'>0.21192E+02</wgt>
<wgt id='15044'>0.21225E+02</wgt>
<wgt id='15045'>0.21230E+02</wgt>
<wgt id='15046'>0.21192E+02</wgt>
<wgt id='15047'>0.21229E+02</wgt>
<wgt id='15048'>0.21233E+02</wgt>
<wgt id='15049'>0.21207E+02</wgt>
<wgt id='15050'>0.21221E+02</wgt>
<wgt id='15051'>0.21236E+02</wgt>
<wgt id='15052'>0.21238E+02</wgt>
<wgt id='15053'>0.21218E+02</wgt>
<wgt id='15054'>0.21210E+02</wgt>
<wgt id='15055'>0.21207E+02</wgt>
<wgt id='15056'>0.21235E+02</wgt>
<wgt id='15057'>0.21224E+02</wgt>
<wgt id='15058'>0.21193E+02</wgt>
<wgt id='15059'>0.21207E+02</wgt>
<wgt id='15060'>0.21209E+02</wgt>
<wgt id='15061'>0.21221E+02</wgt>
<wgt id='15062'>0.21224E+02</wgt>
<wgt id='15063'>0.21227E+02</wgt>
<wgt id='15064'>0.21220E+02</wgt>
<wgt id='15065'>0.21215E+02</wgt>
<wgt id='15066'>0.21219E+02</wgt>
<wgt id='15067'>0.21228E+02</wgt>
<wgt id='15068'>0.21224E+02</wgt>
<wgt id='15069'>0.21239E+02</wgt>
<wgt id='15070'>0.21214E+02</wgt>
<wgt id='15071'>0.21237E+02</wgt>
<wgt id='15072'>0.21238E+02</wgt>
<wgt id='15073'>0.21215E+02</wgt>
<wgt id='15074'>0.21223E+02</wgt>
<wgt id='15075'>0.21218E+02</wgt>
<wgt id='15076'>0.21218E+02</wgt>
<wgt id='15077'>0.21227E+02</wgt>
<wgt id='15078'>0.21221E+02</wgt>
<wgt id='15079'>0.21217E+02</wgt>
<wgt id='15080'>0.21244E+02</wgt>
<wgt id='15081'>0.21220E+02</wgt>
<wgt id='15082'>0.21228E+02</wgt>
<wgt id='15083'>0.21212E+02</wgt>
<wgt id='15084'>0.21209E+02</wgt>
<wgt id='15085'>0.21208E+02</wgt>
<wgt id='15086'>0.21227E+02</wgt>
<wgt id='15087'>0.21197E+02</wgt>
<wgt id='15088'>0.21210E+02</wgt>
<wgt id='15089'>0.21211E+02</wgt>
<wgt id='15090'>0.21224E+02</wgt>
<wgt id='15091'>0.21214E+02</wgt>
<wgt id='15092'>0.21217E+02</wgt>
<wgt id='15093'>0.21214E+02</wgt>
<wgt id='15094'>0.21214E+02</wgt>
<wgt id='15095'>0.21222E+02</wgt>
<wgt id='15096'>0.21216E+02</wgt>
<wgt id='15097'>0.21223E+02</wgt>
<wgt id='15098'>0.21218E+02</wgt>
<wgt id='15099'>0.21214E+02</wgt>
<wgt id='15100'>0.21221E+02</wgt>
<wgt id='15101'>0.21220E+02</wgt>
<wgt id='15102'>0.21219E+02</wgt>
<wgt id='15103'>0.21220E+02</wgt>
<wgt id='15104'>0.21220E+02</wgt>
<wgt id='15105'>0.21221E+02</wgt>
<wgt id='15106'>0.21220E+02</wgt>
<wgt id='15107'>0.21219E+02</wgt>
<wgt id='1500'>0.23497E+02</wgt>
<wgt id='1501'>0.23772E+02</wgt>
<wgt id='1502'>0.23523E+02</wgt>
<wgt id='1503'>0.24013E+02</wgt>
<wgt id='1504'>0.22980E+02</wgt>
<wgt id='1505'>0.23298E+02</wgt>
<wgt id='1506'>0.24191E+02</wgt>
<wgt id='1507'>0.23323E+02</wgt>
<wgt id='1508'>0.23686E+02</wgt>
<wgt id='1509'>0.24063E+02</wgt>
<wgt id='1510'>0.22850E+02</wgt>
<wgt id='1511'>0.21787E+02</wgt>
<wgt id='1512'>0.23879E+02</wgt>
<wgt id='1513'>0.23584E+02</wgt>
<wgt id='1514'>0.23301E+02</wgt>
<wgt id='1515'>0.24261E+02</wgt>
<wgt id='1516'>0.23861E+02</wgt>
<wgt id='1517'>0.23837E+02</wgt>
<wgt id='1518'>0.23986E+02</wgt>
<wgt id='1519'>0.23866E+02</wgt>
<wgt id='1520'>0.24856E+02</wgt>
<wgt id='1521'>0.23712E+02</wgt>
<wgt id='1522'>0.22929E+02</wgt>
<wgt id='1523'>0.24777E+02</wgt>
<wgt id='1524'>0.23427E+02</wgt>
<wgt id='1525'>0.23167E+02</wgt>
<wgt id='1526'>0.23660E+02</wgt>
<wgt id='1527'>0.23779E+02</wgt>
<wgt id='1528'>0.23141E+02</wgt>
<wgt id='1529'>0.24233E+02</wgt>
<wgt id='1530'>0.24336E+02</wgt>
<wgt id='1531'>0.23079E+02</wgt>
<wgt id='1532'>0.22768E+02</wgt>
<wgt id='1533'>0.22676E+02</wgt>
<wgt id='1534'>0.23262E+02</wgt>
<wgt id='1535'>0.24004E+02</wgt>
<wgt id='1536'>0.23268E+02</wgt>
<wgt id='1537'>0.23988E+02</wgt>
<wgt id='1538'>0.23627E+02</wgt>
<wgt id='1539'>0.23552E+02</wgt>
<wgt id='1540'>0.22972E+02</wgt>
<wgt id='1541'>0.23757E+02</wgt>
<wgt id='1542'>0.23162E+02</wgt>
<wgt id='1543'>0.23014E+02</wgt>
<wgt id='1544'>0.23479E+02</wgt>
<wgt id='1545'>0.23036E+02</wgt>
<wgt id='1546'>0.23995E+02</wgt>
<wgt id='1547'>0.23333E+02</wgt>
<wgt id='1548'>0.23604E+02</wgt>
<wgt id='1549'>0.23232E+02</wgt>
<wgt id='1550'>0.23056E+02</wgt>
<wgt id='1551'>0.23153E+02</wgt>
<wgt id='1552'>0.23025E+02</wgt>
<wgt id='1553'>0.23608E+02</wgt>
<wgt id='1554'>0.23408E+02</wgt>
<wgt id='1555'>0.22843E+02</wgt>
<wgt id='1556'>0.23550E+02</wgt>
<wgt id='1557'>0.23658E+02</wgt>
<wgt id='1558'>0.22896E+02</wgt>
<wgt id='1559'>0.24313E+02</wgt>
<wgt id='1560'>0.23352E+02</wgt>
<wgt id='1561'>0.23345E+02</wgt>
<wgt id='1562'>0.23843E+02</wgt>
<wgt id='1563'>0.22910E+02</wgt>
<wgt id='1564'>0.23311E+02</wgt>
<wgt id='1565'>0.23440E+02</wgt>
<wgt id='1566'>0.23181E+02</wgt>
<wgt id='1567'>0.25539E+02</wgt>
<wgt id='1568'>0.23369E+02</wgt>
<wgt id='1569'>0.22644E+02</wgt>
<wgt id='1570'>0.22618E+02</wgt>
<wgt id='1571'>0.22911E+02</wgt>
<wgt id='1572'>0.23811E+02</wgt>
<wgt id='1573'>0.23074E+02</wgt>
<wgt id='1574'>0.23744E+02</wgt>
<wgt id='1575'>0.23386E+02</wgt>
<wgt id='1576'>0.22664E+02</wgt>
<wgt id='1577'>0.23081E+02</wgt>
<wgt id='1578'>0.23752E+02</wgt>
<wgt id='1579'>0.23323E+02</wgt>
<wgt id='1580'>0.23154E+02</wgt>
<wgt id='1581'>0.23400E+02</wgt>
<wgt id='1582'>0.22725E+02</wgt>
<wgt id='1583'>0.24780E+02</wgt>
<wgt id='1584'>0.23215E+02</wgt>
<wgt id='1585'>0.23378E+02</wgt>
<wgt id='1586'>0.23162E+02</wgt>
<wgt id='1587'>0.23571E+02</wgt>
<wgt id='1588'>0.23444E+02</wgt>
<wgt id='1589'>0.24794E+02</wgt>
<wgt id='1590'>0.23071E+02</wgt>
<wgt id='1591'>0.23429E+02</wgt>
<wgt id='1592'>0.23148E+02</wgt>
<wgt id='1593'>0.23801E+02</wgt>
<wgt id='1594'>0.23965E+02</wgt>
<wgt id='1595'>0.23260E+02</wgt>
<wgt id='1596'>0.23763E+02</wgt>
<wgt id='1597'>0.23524E+02</wgt>
<wgt id='1598'>0.23446E+02</wgt>
<wgt id='1599'>0.23751E+02</wgt>
<wgt id='1600'>0.24501E+02</wgt>
<wgt id='1601'>0.23072E+02</wgt>
<wgt id='1602'>0.23798E+02</wgt>
<wgt id='1700'>0.21868E+02</wgt>
<wgt id='1800'>0.21262E+02</wgt>
<wgt id='1850'>0.26777E+02</wgt>
<wgt id='1900'>0.23972E+02</wgt>
<wgt id='1950'>0.26156E+02</wgt>
</rwgt>
</event>
<event>
      4   9999  2.16956E+01  3.93607E+00 -1.00000E+00  2.57588E-01
      21    -1     0     0   502   512  0.000000000E+00  0.000000000E+00  2.154517163E+02  2.154517163E+02  0.000000000E+00  0.00000E+00  9.000E+00
      21    -1     0     0   501   502  0.000000000E+00  0.000000000E+00 -5.561697164E+01  5.561697164E+01  0.000000000E+00  0.00000E+00  9.000E+00
      25     1     1     2     0     0 -2.145411776E-01 -3.930220811E+00  1.474840067E+01  1.259289626E+02  1.250003825E+02  0.00000E+00  9.000E+00
      21     1     1     2   501   512  2.145411776E-01  3.930220811E+00  1.450863440E+02  1.451397253E+02  1.907348633E-06  0.00000E+00  9.000E+00
#rwgt            1           1   20.945644220188925                1        2406           0
<rwgt>
<wgt id='1001'>0.21696E+02</wgt>
<wgt id='1002'>0.19406E+02</wgt>
<wgt id='1003'>0.24132E+02</wgt>
<wgt id='1004'>0.18320E+02</wgt>
<wgt id='1005'>0.16683E+02</wgt>
<wgt id='1006'>0.20032E+02</wgt>
<wgt id='1007'>0.26118E+02</wgt>
<wgt id='1008'>0.22824E+02</wgt>
<wgt id='1009'>0.29675E+02</wgt>
<wgt id='2000'>0.21696E+02</wgt>
<wgt id='2001'>0.21677E+02</wgt>
<wgt id='2002'>0.21762E+02</wgt>
<wgt id='2003'>0.21759E+02</wgt>
<wgt id='2004'>0.21726E+02</wgt>
<wgt id='2005'>0.21650E+02</wgt>
<wgt id='2006'>0.21630E+02</wgt>
<wgt id='2007'>0.21615E+02</wgt>
<wgt id='2008'>0.21650E+02</wgt>
<wgt id='2009'>0.21720E+02</wgt>
<wgt id='2010'>0.21679E+02</wgt>
<wgt id='2011'>0.21772E+02</wgt>
<wgt id='2012'>0.21793E+02</wgt>
<wgt id='2013'>0.21850E+02</wgt>
<wgt id='2014'>0.21756E+02</wgt>
<wgt id='2015'>0.21730E+02</wgt>
<wgt id='2016'>0.21655E+02</wgt>
<wgt id='2017'>0.21692E+02</wgt>
<wgt id='2018'>0.21759E+02</wgt>
<wgt id='2019'>0.21690E+02</wgt>
<wgt id='2020'>0.21739E+02</wgt>
<wgt id='2021'>0.21675E+02</wgt>
<wgt id='2022'>0.21691E+02</wgt>
<wgt id='2023'>0.21708E+02</wgt>
<wgt id='2024'>0.21701E+02</wgt>
<wgt id='2025'>0.21682E+02</wgt>
<wgt id='2026'>0.21686E+02</wgt>
<wgt id='2027'>0.21686E+02</wgt>
<wgt id='2028'>0.21696E+02</wgt>
<wgt id='2029'>0.21730E+02</wgt>
<wgt id='2030'>0.21708E+02</wgt>
<wgt id='2031'>0.21699E+02</wgt>
<wgt id='2032'>0.21708E+02</wgt>
<wgt id='2033'>0.21696E+02</wgt>
<wgt id='2034'>0.21694E+02</wgt>
<wgt id='2035'>0.21689E+02</wgt>
<wgt id='2036'>0.21697E+02</wgt>
<wgt id='2037'>0.21682E+02</wgt>
<wgt id='2038'>0.21688E+02</wgt>
<wgt id='2039'>0.21709E+02</wgt>
<wgt id='2040'>0.21720E+02</wgt>
<wgt id='2041'>0.21705E+02</wgt>
<wgt id='2042'>0.21668E+02</wgt>
<wgt id='2043'>0.21690E+02</wgt>
<wgt id='2044'>0.21697E+02</wgt>
<wgt id='2045'>0.21690E+02</wgt>
<wgt id='2046'>0.21711E+02</wgt>
<wgt id='2047'>0.21720E+02</wgt>
<wgt id='2048'>0.21692E+02</wgt>
<wgt id='2049'>0.21695E+02</wgt>
<wgt id='2050'>0.21700E+02</wgt>
<wgt id='2051'>0.21708E+02</wgt>
<wgt id='2052'>0.21700E+02</wgt>
<wgt id='2053'>0.21702E+02</wgt>
<wgt id='2054'>0.21694E+02</wgt>
<wgt id='2055'>0.21697E+02</wgt>
<wgt id='2056'>0.21688E+02</wgt>
<wgt id='2057'>0.21696E+02</wgt>
<wgt id='2058'>0.21696E+02</wgt>
<wgt id='2059'>0.21693E+02</wgt>
<wgt id='2060'>0.21694E+02</wgt>
<wgt id='2061'>0.21688E+02</wgt>
<wgt id='2062'>0.21693E+02</wgt>
<wgt id='2063'>0.21704E+02</wgt>
<wgt id='2064'>0.21692E+02</wgt>
<wgt id='2065'>0.21706E+02</wgt>
<wgt id='2066'>0.21696E+02</wgt>
<wgt id='2067'>0.21699E+02</wgt>
<wgt id='2068'>0.21701E+02</wgt>
<wgt id='2069'>0.21699E+02</wgt>
<wgt id='2070'>0.21689E+02</wgt>
<wgt id='2071'>0.21690E+02</wgt>
<wgt id='2072'>0.21697E+02</wgt>
<wgt id='2073'>0.21693E+02</wgt>
<wgt id='2074'>0.21691E+02</wgt>
<wgt id='2075'>0.21695E+02</wgt>
<wgt id='2076'>0.21692E+02</wgt>
<wgt id='2077'>0.21689E+02</wgt>
<wgt id='2078'>0.21698E+02</wgt>
<wgt id='2079'>0.21700E+02</wgt>
<wgt id='2080'>0.21692E+02</wgt>
<wgt id='2081'>0.21698E+02</wgt>
<wgt id='2082'>0.21699E+02</wgt>
<wgt id='2083'>0.21695E+02</wgt>
<wgt id='2084'>0.21696E+02</wgt>
<wgt id='2085'>0.21691E+02</wgt>
<wgt id='2086'>0.21690E+02</wgt>
<wgt id='2087'>0.21698E+02</wgt>
<wgt id='2088'>0.21697E+02</wgt>
<wgt id='2089'>0.21696E+02</wgt>
<wgt id='2090'>0.21692E+02</wgt>
<wgt id='2091'>0.21699E+02</wgt>
<wgt id='2092'>0.21698E+02</wgt>
<wgt id='2093'>0.21692E+02</wgt>
<wgt id='2094'>0.21700E+02</wgt>
<wgt id='2095'>0.21696E+02</wgt>
<wgt id='2096'>0.21698E+02</wgt>
<wgt id='2097'>0.21692E+02</wgt>
<wgt id='2098'>0.21694E+02</wgt>
<wgt id='2099'>0.21697E+02</wgt>
<wgt id='2100'>0.21694E+02</wgt>
<wgt id='2101'>0.21086E+02</wgt>
<wgt id='2102'>0.22258E+02</wgt>
<wgt id='2104'>0.18832E+02</wgt>
<wgt id='2105'>0.19329E+02</wgt>
<wgt id='2106'>0.19918E+02</wgt>
<wgt id='2107'>0.20529E+02</wgt>
<wgt id='2108'>0.21429E+02</wgt>
<wgt id='2109'>0.22039E+02</wgt>
<wgt id='2110'>0.22838E+02</wgt>
<wgt id='2111'>0.23466E+02</wgt>
<wgt id='3000'>0.22671E+02</wgt>
<wgt id='3001'>0.22737E+02</wgt>
<wgt id='3002'>0.22603E+02</wgt>
<wgt id='3003'>0.22737E+02</wgt>
<wgt id='3004'>0.22719E+02</wgt>
<wgt id='3005'>0.22762E+02</wgt>
<wgt id='3006'>0.22694E+02</wgt>
<wgt id='3007'>0.22717E+02</wgt>
<wgt id='3008'>0.22612E+02</wgt>
<wgt id='3009'>0.22662E+02</wgt>
<wgt id='3010'>0.22591E+02</wgt>
<wgt id='3011'>0.22707E+02</wgt>
<wgt id='3012'>0.22807E+02</wgt>
<wgt id='3013'>0.22529E+02</wgt>
<wgt id='3014'>0.22748E+02</wgt>
<wgt id='3015'>0.22738E+02</wgt>
<wgt id='3016'>0.22683E+02</wgt>
<wgt id='3017'>0.22753E+02</wgt>
<wgt id='3018'>0.22693E+02</wgt>
<wgt id='3019'>0.22605E+02</wgt>
<wgt id='3020'>0.22668E+02</wgt>
<wgt id='3021'>0.22636E+02</wgt>
<wgt id='3022'>0.22665E+02</wgt>
<wgt id='3023'>0.22656E+02</wgt>
<wgt id='3024'>0.22680E+02</wgt>
<wgt id='3025'>0.22673E+02</wgt>
<wgt id='3026'>0.22664E+02</wgt>
<wgt id='3027'>0.22679E+02</wgt>
<wgt id='3028'>0.22668E+02</wgt>
<wgt id='3029'>0.22681E+02</wgt>
<wgt id='3030'>0.22694E+02</wgt>
<wgt id='3031'>0.22679E+02</wgt>
<wgt id='3032'>0.22662E+02</wgt>
<wgt id='3033'>0.22668E+02</wgt>
<wgt id='3034'>0.22671E+02</wgt>
<wgt id='3035'>0.22658E+02</wgt>
<wgt id='3036'>0.22678E+02</wgt>
<wgt id='3037'>0.22686E+02</wgt>
<wgt id='3038'>0.22675E+02</wgt>
<wgt id='3039'>0.22664E+02</wgt>
<wgt id='3040'>0.22690E+02</wgt>
<wgt id='3041'>0.22682E+02</wgt>
<wgt id='3042'>0.22656E+02</wgt>
<wgt id='3043'>0.22660E+02</wgt>
<wgt id='3044'>0.22661E+02</wgt>
<wgt id='3045'>0.22667E+02</wgt>
<wgt id='3046'>0.22688E+02</wgt>
<wgt id='3047'>0.22670E+02</wgt>
<wgt id='3048'>0.22673E+02</wgt>
<wgt id='3049'>0.22674E+02</wgt>
<wgt id='3050'>0.22653E+02</wgt>
<wgt id='3051'>0.22687E+02</wgt>
<wgt id='3052'>0.22665E+02</wgt>
<wgt id='3053'>0.22659E+02</wgt>
<wgt id='3054'>0.22669E+02</wgt>
<wgt id='3055'>0.22653E+02</wgt>
<wgt id='3056'>0.22671E+02</wgt>
<wgt id='3057'>0.22669E+02</wgt>
<wgt id='3058'>0.22660E+02</wgt>
<wgt id='3059'>0.22668E+02</wgt>
<wgt id='3060'>0.22670E+02</wgt>
<wgt id='3061'>0.22670E+02</wgt>
<wgt id='3062'>0.22681E+02</wgt>
<wgt id='3063'>0.22666E+02</wgt>
<wgt id='3064'>0.22667E+02</wgt>
<wgt id='3065'>0.22668E+02</wgt>
<wgt id='3066'>0.22670E+02</wgt>
<wgt id='3067'>0.22658E+02</wgt>
<wgt id='3068'>0.22674E+02</wgt>
<wgt id='3069'>0.22662E+02</wgt>
<wgt id='3070'>0.22667E+02</wgt>
<wgt id='3071'>0.22667E+02</wgt>
<wgt id='3072'>0.22679E+02</wgt>
<wgt id='3073'>0.22667E+02</wgt>
<wgt id='3074'>0.22679E+02</wgt>
<wgt id='3075'>0.22671E+02</wgt>
<wgt id='3076'>0.22668E+02</wgt>
<wgt id='3077'>0.22674E+02</wgt>
<wgt id='3078'>0.22676E+02</wgt>
<wgt id='3079'>0.22670E+02</wgt>
<wgt id='3080'>0.22662E+02</wgt>
<wgt id='3081'>0.22674E+02</wgt>
<wgt id='3082'>0.22675E+02</wgt>
<wgt id='3083'>0.22666E+02</wgt>
<wgt id='3084'>0.22673E+02</wgt>
<wgt id='3085'>0.22669E+02</wgt>
<wgt id='3086'>0.22675E+02</wgt>
<wgt id='3087'>0.22674E+02</wgt>
<wgt id='3088'>0.22672E+02</wgt>
<wgt id='3089'>0.22671E+02</wgt>
<wgt id='3090'>0.22675E+02</wgt>
<wgt id='3091'>0.22673E+02</wgt>
<wgt id='3092'>0.22670E+02</wgt>
<wgt id='3093'>0.22672E+02</wgt>
<wgt id='3094'>0.22671E+02</wgt>
<wgt id='3095'>0.22672E+02</wgt>
<wgt id='3096'>0.22670E+02</wgt>
<wgt id='3097'>0.22670E+02</wgt>
<wgt id='3098'>0.22672E+02</wgt>
<wgt id='3099'>0.22673E+02</wgt>
<wgt id='3100'>0.22673E+02</wgt>
<wgt id='3101'>0.22061E+02</wgt>
<wgt id='3102'>0.23364E+02</wgt>
<wgt id='5000'>0.21496E+02</wgt>
<wgt id='5001'>0.21435E+02</wgt>
<wgt id='5002'>0.21507E+02</wgt>
<wgt id='5003'>0.21388E+02</wgt>
<wgt id='5004'>0.21575E+02</wgt>
<wgt id='5005'>0.21109E+02</wgt>
<wgt id='5006'>0.21784E+02</wgt>
<wgt id='5007'>0.21611E+02</wgt>
<wgt id='5008'>0.21308E+02</wgt>
<wgt id='5009'>0.21678E+02</wgt>
<wgt id='5010'>0.21382E+02</wgt>
<wgt id='5011'>0.21509E+02</wgt>
<wgt id='5012'>0.21465E+02</wgt>
<wgt id='5013'>0.21327E+02</wgt>
<wgt id='5014'>0.21396E+02</wgt>
<wgt id='5015'>0.21576E+02</wgt>
<wgt id='5016'>0.21243E+02</wgt>
<wgt id='5017'>0.21492E+02</wgt>
<wgt id='5018'>0.21501E+02</wgt>
<wgt id='5019'>0.21440E+02</wgt>
<wgt id='5020'>0.21529E+02</wgt>
<wgt id='5021'>0.21528E+02</wgt>
<wgt id='5022'>0.21476E+02</wgt>
<wgt id='5023'>0.21429E+02</wgt>
<wgt id='5024'>0.21567E+02</wgt>
<wgt id='5025'>0.21516E+02</wgt>
<wgt id='5026'>0.21480E+02</wgt>
<wgt id='5027'>0.21643E+02</wgt>
<wgt id='5028'>0.21250E+02</wgt>
<wgt id='5029'>0.21270E+02</wgt>
<wgt id='5030'>0.21631E+02</wgt>
<wgt id='5031'>0.21340E+02</wgt>
<wgt id='5032'>0.21720E+02</wgt>
<wgt id='5033'>0.21359E+02</wgt>
<wgt id='5034'>0.21618E+02</wgt>
<wgt id='5035'>0.21298E+02</wgt>
<wgt id='5036'>0.21650E+02</wgt>
<wgt id='5037'>0.21407E+02</wgt>
<wgt id='5038'>0.21590E+02</wgt>
<wgt id='5039'>0.21818E+02</wgt>
<wgt id='5040'>0.21324E+02</wgt>
<wgt id='5041'>0.21302E+02</wgt>
<wgt id='5042'>0.21535E+02</wgt>
<wgt id='5043'>0.21690E+02</wgt>
<wgt id='5044'>0.21121E+02</wgt>
<wgt id='5045'>0.21938E+02</wgt>
<wgt id='5046'>0.21299E+02</wgt>
<wgt id='5047'>0.21563E+02</wgt>
<wgt id='5048'>0.21523E+02</wgt>
<wgt id='5049'>0.21520E+02</wgt>
<wgt id='5050'>0.21516E+02</wgt>
<wgt id='5051'>0.21548E+02</wgt>
<wgt id='5052'>0.21469E+02</wgt>
<wgt id='5053'>0.21315E+02</wgt>
<wgt id='5054'>0.21947E+02</wgt>
<wgt id='5055'>0.21376E+02</wgt>
<wgt id='5056'>0.21611E+02</wgt>
<wgt id='5060'>0.20924E+02</wgt>
<wgt id='5070'>0.22024E+02</wgt>
<wgt id='4000'>0.22453E+02</wgt>
<wgt id='4001'>0.22461E+02</wgt>
<wgt id='4002'>0.22509E+02</wgt>
<wgt id='4003'>0.22846E+02</wgt>
<wgt id='4004'>0.22239E+02</wgt>
<wgt id='4005'>0.22504E+02</wgt>
<wgt id='4006'>0.22417E+02</wgt>
<wgt id='4007'>0.22632E+02</wgt>
<wgt id='4008'>0.22330E+02</wgt>
<wgt id='4009'>0.22145E+02</wgt>
<wgt id='4010'>0.22746E+02</wgt>
<wgt id='4011'>0.22747E+02</wgt>
<wgt id='4012'>0.22272E+02</wgt>
<wgt id='4013'>0.21923E+02</wgt>
<wgt id='4014'>0.22759E+02</wgt>
<wgt id='4015'>0.22661E+02</wgt>
<wgt id='4016'>0.22308E+02</wgt>
<wgt id='4017'>0.22249E+02</wgt>
<wgt id='4018'>0.22694E+02</wgt>
<wgt id='4019'>0.22659E+02</wgt>
<wgt id='4020'>0.22220E+02</wgt>
<wgt id='4021'>0.22487E+02</wgt>
<wgt id='4022'>0.22374E+02</wgt>
<wgt id='4023'>0.22390E+02</wgt>
<wgt id='4024'>0.22509E+02</wgt>
<wgt id='4025'>0.22284E+02</wgt>
<wgt id='4026'>0.22603E+02</wgt>
<wgt id='4027'>0.22421E+02</wgt>
<wgt id='4028'>0.22497E+02</wgt>
<wgt id='4029'>0.22374E+02</wgt>
<wgt id='4030'>0.22480E+02</wgt>
<wgt id='4031'>0.22476E+02</wgt>
<wgt id='4032'>0.22422E+02</wgt>
<wgt id='4033'>0.22437E+02</wgt>
<wgt id='4034'>0.22483E+02</wgt>
<wgt id='4035'>0.22596E+02</wgt>
<wgt id='4036'>0.22313E+02</wgt>
<wgt id='4037'>0.22550E+02</wgt>
<wgt id='4038'>0.22287E+02</wgt>
<wgt id='4039'>0.22433E+02</wgt>
<wgt id='4040'>0.22456E+02</wgt>
<wgt id='4041'>0.22570E+02</wgt>
<wgt id='4042'>0.22340E+02</wgt>
<wgt id='4043'>0.22505E+02</wgt>
<wgt id='4044'>0.22351E+02</wgt>
<wgt id='4045'>0.22408E+02</wgt>
<wgt id='4046'>0.22355E+02</wgt>
<wgt id='4047'>0.22194E+02</wgt>
<wgt id='4048'>0.22704E+02</wgt>
<wgt id='4049'>0.22601E+02</wgt>
<wgt id='4050'>0.22092E+02</wgt>
<wgt id='4051'>0.22448E+02</wgt>
<wgt id='4052'>0.22409E+02</wgt>
<wgt id='4053'>0.21866E+02</wgt>
<wgt id='4054'>0.22633E+02</wgt>
<wgt id='4055'>0.22293E+02</wgt>
<wgt id='4056'>0.22605E+02</wgt>
<wgt id='4060'>0.21806E+02</wgt>
<wgt id='4070'>0.23074E+02</wgt>
<wgt id='4080'>0.22191E+02</wgt>
<wgt id='6000'>0.22760E+02</wgt>
<wgt id='6001'>0.22763E+02</wgt>
<wgt id='6002'>0.22756E+02</wgt>
<wgt id='6003'>0.22771E+02</wgt>
<wgt id='6004'>0.22752E+02</wgt>
<wgt id='6005'>0.22834E+02</wgt>
<wgt id='6006'>0.22691E+02</wgt>
<wgt id='6007'>0.22675E+02</wgt>
<wgt id='6008'>0.22855E+02</wgt>
<wgt id='6009'>0.22801E+02</wgt>
<wgt id='6010'>0.22719E+02</wgt>
<wgt id='6011'>0.22792E+02</wgt>
<wgt id='6012'>0.22688E+02</wgt>
<wgt id='6013'>0.22745E+02</wgt>
<wgt id='6014'>0.22786E+02</wgt>
<wgt id='6015'>0.22706E+02</wgt>
<wgt id='6016'>0.22790E+02</wgt>
<wgt id='6017'>0.22675E+02</wgt>
<wgt id='6018'>0.22859E+02</wgt>
<wgt id='6019'>0.22789E+02</wgt>
<wgt id='6020'>0.22734E+02</wgt>
<wgt id='6021'>0.22730E+02</wgt>
<wgt id='6022'>0.22799E+02</wgt>
<wgt id='6023'>0.22642E+02</wgt>
<wgt id='6024'>0.22842E+02</wgt>
<wgt id='6025'>0.22586E+02</wgt>
<wgt id='6026'>0.22915E+02</wgt>
<wgt id='6027'>0.22798E+02</wgt>
<wgt id='6028'>0.22754E+02</wgt>
<wgt id='6029'>0.22834E+02</wgt>
<wgt id='6030'>0.22676E+02</wgt>
<wgt id='6031'>0.22729E+02</wgt>
<wgt id='6032'>0.22790E+02</wgt>
<wgt id='6033'>0.22808E+02</wgt>
<wgt id='6034'>0.22710E+02</wgt>
<wgt id='6035'>0.22758E+02</wgt>
<wgt id='6036'>0.22781E+02</wgt>
<wgt id='6037'>0.22793E+02</wgt>
<wgt id='6038'>0.22760E+02</wgt>
<wgt id='6039'>0.22740E+02</wgt>
<wgt id='6040'>0.22782E+02</wgt>
<wgt id='6041'>0.22691E+02</wgt>
<wgt id='6042'>0.22840E+02</wgt>
<wgt id='6043'>0.22973E+02</wgt>
<wgt id='6044'>0.22640E+02</wgt>
<wgt id='6045'>0.22738E+02</wgt>
<wgt id='6046'>0.22808E+02</wgt>
<wgt id='6047'>0.22700E+02</wgt>
<wgt id='6048'>0.22691E+02</wgt>
<wgt id='6049'>0.22732E+02</wgt>
<wgt id='6050'>0.22764E+02</wgt>
<wgt id='7000'>0.21511E+02</wgt>
<wgt id='7001'>0.21498E+02</wgt>
<wgt id='7002'>0.21528E+02</wgt>
<wgt id='7003'>0.21573E+02</wgt>
<wgt id='7004'>0.21450E+02</wgt>
<wgt id='7005'>0.21555E+02</wgt>
<wgt id='7006'>0.21494E+02</wgt>
<wgt id='7007'>0.21451E+02</wgt>
<wgt id='7008'>0.21571E+02</wgt>
<wgt id='7009'>0.21535E+02</wgt>
<wgt id='7010'>0.21489E+02</wgt>
<wgt id='7011'>0.21378E+02</wgt>
<wgt id='7012'>0.21569E+02</wgt>
<wgt id='7013'>0.21513E+02</wgt>
<wgt id='7014'>0.21510E+02</wgt>
<wgt id='7015'>0.21474E+02</wgt>
<wgt id='7016'>0.21551E+02</wgt>
<wgt id='7017'>0.21507E+02</wgt>
<wgt id='7018'>0.21512E+02</wgt>
<wgt id='7019'>0.21494E+02</wgt>
<wgt id='7020'>0.21535E+02</wgt>
<wgt id='7021'>0.21495E+02</wgt>
<wgt id='7022'>0.21522E+02</wgt>
<wgt id='7023'>0.21690E+02</wgt>
<wgt id='7024'>0.21339E+02</wgt>
<wgt id='7025'>0.21582E+02</wgt>
<wgt id='7026'>0.21338E+02</wgt>
<wgt id='7027'>0.21575E+02</wgt>
<wgt id='7028'>0.21467E+02</wgt>
<wgt id='7029'>0.21458E+02</wgt>
<wgt id='7030'>0.21658E+02</wgt>
<wgt id='7031'>0.21494E+02</wgt>
<wgt id='7032'>0.21546E+02</wgt>
<wgt id='7033'>0.21496E+02</wgt>
<wgt id='7034'>0.21542E+02</wgt>
<wgt id='7035'>0.21517E+02</wgt>
<wgt id='7036'>0.21510E+02</wgt>
<wgt id='7037'>0.21516E+02</wgt>
<wgt id='7038'>0.21506E+02</wgt>
<wgt id='7039'>0.21492E+02</wgt>
<wgt id='7040'>0.21525E+02</wgt>
<wgt id='7041'>0.21498E+02</wgt>
<wgt id='7042'>0.21500E+02</wgt>
<wgt id='7043'>0.21526E+02</wgt>
<wgt id='7044'>0.21424E+02</wgt>
<wgt id='7045'>0.21361E+02</wgt>
<wgt id='7046'>0.21549E+02</wgt>
<wgt id='7047'>0.21523E+02</wgt>
<wgt id='7048'>0.21495E+02</wgt>
<wgt id='7049'>0.21493E+02</wgt>
<wgt id='7050'>0.21464E+02</wgt>
<wgt id='7060'>0.31644E+02</wgt>
<wgt id='8000'>0.21606E+02</wgt>
<wgt id='8001'>0.21601E+02</wgt>
<wgt id='8002'>0.21611E+02</wgt>
<wgt id='8003'>0.21607E+02</wgt>
<wgt id='8004'>0.21605E+02</wgt>
<wgt id='8005'>0.21567E+02</wgt>
<wgt id='8006'>0.21601E+02</wgt>
<wgt id='8007'>0.21597E+02</wgt>
<wgt id='8008'>0.21638E+02</wgt>
<wgt id='8009'>0.21669E+02</wgt>
<wgt id='8010'>0.21602E+02</wgt>
<wgt id='8011'>0.21596E+02</wgt>
<wgt id='8012'>0.21575E+02</wgt>
<wgt id='8013'>0.21592E+02</wgt>
<wgt id='8014'>0.21605E+02</wgt>
<wgt id='8015'>0.21589E+02</wgt>
<wgt id='8016'>0.21611E+02</wgt>
<wgt id='8017'>0.21604E+02</wgt>
<wgt id='8018'>0.21615E+02</wgt>
<wgt id='8019'>0.21628E+02</wgt>
<wgt id='8020'>0.21565E+02</wgt>
<wgt id='8021'>0.21599E+02</wgt>
<wgt id='8022'>0.21532E+02</wgt>
<wgt id='8023'>0.21610E+02</wgt>
<wgt id='8024'>0.21617E+02</wgt>
<wgt id='8025'>0.21642E+02</wgt>
<wgt id='8026'>0.21639E+02</wgt>
<wgt id='8027'>0.21587E+02</wgt>
<wgt id='8028'>0.21615E+02</wgt>
<wgt id='8029'>0.21567E+02</wgt>
<wgt id='8500'>0.22542E+02</wgt>
<wgt id='8501'>0.22470E+02</wgt>
<wgt id='8502'>0.22722E+02</wgt>
<wgt id='8503'>0.22669E+02</wgt>
<wgt id='8504'>0.22479E+02</wgt>
<wgt id='8505'>0.22451E+02</wgt>
<wgt id='8506'>0.22502E+02</wgt>
<wgt id='8507'>0.22607E+02</wgt>
<wgt id='8508'>0.22756E+02</wgt>
<wgt id='8509'>0.22441E+02</wgt>
<wgt id='8510'>0.22769E+02</wgt>
<wgt id='8511'>0.22534E+02</wgt>
<wgt id='8512'>0.22373E+02</wgt>
<wgt id='8513'>0.22572E+02</wgt>
<wgt id='8514'>0.22497E+02</wgt>
<wgt id='8515'>0.22551E+02</wgt>
<wgt id='8516'>0.22591E+02</wgt>
<wgt id='8517'>0.22548E+02</wgt>
<wgt id='8518'>0.22476E+02</wgt>
<wgt id='8519'>0.22463E+02</wgt>
<wgt id='8520'>0.22526E+02</wgt>
<wgt id='8521'>0.22441E+02</wgt>
<wgt id='8522'>0.22585E+02</wgt>
<wgt id='8523'>0.22504E+02</wgt>
<wgt id='8524'>0.22536E+02</wgt>
<wgt id='8525'>0.22540E+02</wgt>
<wgt id='8526'>0.22520E+02</wgt>
<wgt id='8527'>0.22532E+02</wgt>
<wgt id='8528'>0.22502E+02</wgt>
<wgt id='8529'>0.22519E+02</wgt>
<wgt id='8530'>0.22549E+02</wgt>
<wgt id='8531'>0.22535E+02</wgt>
<wgt id='8532'>0.22543E+02</wgt>
<wgt id='8533'>0.22497E+02</wgt>
<wgt id='8534'>0.22550E+02</wgt>
<wgt id='8535'>0.22595E+02</wgt>
<wgt id='8536'>0.22532E+02</wgt>
<wgt id='8537'>0.22550E+02</wgt>
<wgt id='8538'>0.22524E+02</wgt>
<wgt id='8539'>0.22555E+02</wgt>
<wgt id='8540'>0.22549E+02</wgt>
<wgt id='8541'>0.22560E+02</wgt>
<wgt id='8542'>0.22562E+02</wgt>
<wgt id='8543'>0.22522E+02</wgt>
<wgt id='8544'>0.22573E+02</wgt>
<wgt id='8545'>0.22554E+02</wgt>
<wgt id='8546'>0.22561E+02</wgt>
<wgt id='8547'>0.22523E+02</wgt>
<wgt id='8548'>0.22525E+02</wgt>
<wgt id='8549'>0.22543E+02</wgt>
<wgt id='8550'>0.22536E+02</wgt>
<wgt id='8551'>0.22517E+02</wgt>
<wgt id='8552'>0.22538E+02</wgt>
<wgt id='8553'>0.22524E+02</wgt>
<wgt id='8554'>0.22530E+02</wgt>
<wgt id='8555'>0.22542E+02</wgt>
<wgt id='8556'>0.22541E+02</wgt>
<wgt id='8557'>0.22541E+02</wgt>
<wgt id='8558'>0.22570E+02</wgt>
<wgt id='8559'>0.22532E+02</wgt>
<wgt id='8560'>0.22513E+02</wgt>
<wgt id='8561'>0.22546E+02</wgt>
<wgt id='8562'>0.22521E+02</wgt>
<wgt id='8563'>0.22542E+02</wgt>
<wgt id='8564'>0.22535E+02</wgt>
<wgt id='8565'>0.22540E+02</wgt>
<wgt id='8566'>0.22538E+02</wgt>
<wgt id='8567'>0.22539E+02</wgt>
<wgt id='8568'>0.22555E+02</wgt>
<wgt id='8569'>0.22553E+02</wgt>
<wgt id='8570'>0.22538E+02</wgt>
<wgt id='8571'>0.22532E+02</wgt>
<wgt id='8572'>0.22530E+02</wgt>
<wgt id='8573'>0.22531E+02</wgt>
<wgt id='8574'>0.22540E+02</wgt>
<wgt id='8575'>0.22542E+02</wgt>
<wgt id='8576'>0.22537E+02</wgt>
<wgt id='8577'>0.22536E+02</wgt>
<wgt id='8578'>0.22539E+02</wgt>
<wgt id='8579'>0.22553E+02</wgt>
<wgt id='8580'>0.22541E+02</wgt>
<wgt id='8581'>0.22551E+02</wgt>
<wgt id='8582'>0.22527E+02</wgt>
<wgt id='8583'>0.22553E+02</wgt>
<wgt id='8584'>0.22549E+02</wgt>
<wgt id='8585'>0.22549E+02</wgt>
<wgt id='8586'>0.22554E+02</wgt>
<wgt id='8587'>0.22544E+02</wgt>
<wgt id='8588'>0.22538E+02</wgt>
<wgt id='8589'>0.22541E+02</wgt>
<wgt id='8590'>0.22543E+02</wgt>
<wgt id='8591'>0.22536E+02</wgt>
<wgt id='8592'>0.22540E+02</wgt>
<wgt id='8593'>0.22535E+02</wgt>
<wgt id='8594'>0.22544E+02</wgt>
<wgt id='8595'>0.22542E+02</wgt>
<wgt id='8596'>0.22537E+02</wgt>
<wgt id='8597'>0.22546E+02</wgt>
<wgt id='8598'>0.22547E+02</wgt>
<wgt id='8599'>0.22544E+02</wgt>
<wgt id='8600'>0.22542E+02</wgt>
<wgt id='8601'>0.22076E+02</wgt>
<wgt id='8602'>0.22972E+02</wgt>
<wgt id='9000'>0.21509E+02</wgt>
<wgt id='9001'>0.21562E+02</wgt>
<wgt id='9002'>0.21581E+02</wgt>
<wgt id='9003'>0.21377E+02</wgt>
<wgt id='9004'>0.21499E+02</wgt>
<wgt id='9005'>0.21625E+02</wgt>
<wgt id='9006'>0.21471E+02</wgt>
<wgt id='9007'>0.21473E+02</wgt>
<wgt id='9008'>0.21531E+02</wgt>
<wgt id='9009'>0.21517E+02</wgt>
<wgt id='9010'>0.21497E+02</wgt>
<wgt id='9011'>0.21678E+02</wgt>
<wgt id='9012'>0.21330E+02</wgt>
<wgt id='9013'>0.21347E+02</wgt>
<wgt id='9014'>0.21314E+02</wgt>
<wgt id='9015'>0.21444E+02</wgt>
<wgt id='9016'>0.21541E+02</wgt>
<wgt id='9017'>0.21529E+02</wgt>
<wgt id='9018'>0.21541E+02</wgt>
<wgt id='9019'>0.21514E+02</wgt>
<wgt id='9020'>0.21612E+02</wgt>
<wgt id='9021'>0.21451E+02</wgt>
<wgt id='9022'>0.21524E+02</wgt>
<wgt id='9023'>0.21477E+02</wgt>
<wgt id='9024'>0.21480E+02</wgt>
<wgt id='9025'>0.21540E+02</wgt>
<wgt id='9026'>0.21514E+02</wgt>
<wgt id='9027'>0.21489E+02</wgt>
<wgt id='9028'>0.21518E+02</wgt>
<wgt id='9029'>0.21529E+02</wgt>
<wgt id='9030'>0.21517E+02</wgt>
<wgt id='9031'>0.21506E+02</wgt>
<wgt id='9032'>0.21528E+02</wgt>
<wgt id='9033'>0.21533E+02</wgt>
<wgt id='9034'>0.21496E+02</wgt>
<wgt id='9035'>0.21534E+02</wgt>
<wgt id='9036'>0.21514E+02</wgt>
<wgt id='9037'>0.21528E+02</wgt>
<wgt id='9038'>0.21515E+02</wgt>
<wgt id='9039'>0.21508E+02</wgt>
<wgt id='9040'>0.21486E+02</wgt>
<wgt id='9041'>0.21508E+02</wgt>
<wgt id='9042'>0.21499E+02</wgt>
<wgt id='9043'>0.21493E+02</wgt>
<wgt id='9044'>0.21507E+02</wgt>
<wgt id='9045'>0.21504E+02</wgt>
<wgt id='9046'>0.21482E+02</wgt>
<wgt id='9047'>0.21505E+02</wgt>
<wgt id='9048'>0.21522E+02</wgt>
<wgt id='9049'>0.21499E+02</wgt>
<wgt id='9050'>0.21514E+02</wgt>
<wgt id='9051'>0.21518E+02</wgt>
<wgt id='9052'>0.21519E+02</wgt>
<wgt id='9053'>0.21506E+02</wgt>
<wgt id='9054'>0.21502E+02</wgt>
<wgt id='9055'>0.21504E+02</wgt>
<wgt id='9056'>0.21530E+02</wgt>
<wgt id='9057'>0.21513E+02</wgt>
<wgt id='9058'>0.21487E+02</wgt>
<wgt id='9059'>0.21496E+02</wgt>
<wgt id='9060'>0.21500E+02</wgt>
<wgt id='9061'>0.21512E+02</wgt>
<wgt id='9062'>0.21512E+02</wgt>
<wgt id='9063'>0.21515E+02</wgt>
<wgt id='9064'>0.21505E+02</wgt>
<wgt id='9065'>0.21509E+02</wgt>
<wgt id='9066'>0.21512E+02</wgt>
<wgt id='9067'>0.21520E+02</wgt>
<wgt id='9068'>0.21512E+02</wgt>
<wgt id='9069'>0.21527E+02</wgt>
<wgt id='9070'>0.21502E+02</wgt>
<wgt id='9071'>0.21529E+02</wgt>
<wgt id='9072'>0.21527E+02</wgt>
<wgt id='9073'>0.21503E+02</wgt>
<wgt id='9074'>0.21510E+02</wgt>
<wgt id='9075'>0.21507E+02</wgt>
<wgt id='9076'>0.21510E+02</wgt>
<wgt id='9077'>0.21512E+02</wgt>
<wgt id='9078'>0.21511E+02</wgt>
<wgt id='9079'>0.21511E+02</wgt>
<wgt id='9080'>0.21529E+02</wgt>
<wgt id='9081'>0.21511E+02</wgt>
<wgt id='9082'>0.21519E+02</wgt>
<wgt id='9083'>0.21503E+02</wgt>
<wgt id='9084'>0.21505E+02</wgt>
<wgt id='9085'>0.21501E+02</wgt>
<wgt id='9086'>0.21512E+02</wgt>
<wgt id='9087'>0.21493E+02</wgt>
<wgt id='9088'>0.21503E+02</wgt>
<wgt id='9089'>0.21501E+02</wgt>
<wgt id='9090'>0.21511E+02</wgt>
<wgt id='9091'>0.21509E+02</wgt>
<wgt id='9092'>0.21507E+02</wgt>
<wgt id='9093'>0.21505E+02</wgt>
<wgt id='9094'>0.21508E+02</wgt>
<wgt id='9095'>0.21514E+02</wgt>
<wgt id='9096'>0.21506E+02</wgt>
<wgt id='9097'>0.21511E+02</wgt>
<wgt id='9098'>0.21508E+02</wgt>
<wgt id='9099'>0.21504E+02</wgt>
<wgt id='9100'>0.21510E+02</wgt>
<wgt id='9101'>0.21115E+02</wgt>
<wgt id='9102'>0.21844E+02</wgt>
<wgt id='10000'>0.22540E+02</wgt>
<wgt id='10001'>0.22617E+02</wgt>
<wgt id='10002'>0.22531E+02</wgt>
<wgt id='10003'>0.22550E+02</wgt>
<wgt id='10004'>0.22588E+02</wgt>
<wgt id='10005'>0.22988E+02</wgt>
<wgt id='10006'>0.22525E+02</wgt>
<wgt id='10007'>0.22536E+02</wgt>
<wgt id='10008'>0.22556E+02</wgt>
<wgt id='10009'>0.22486E+02</wgt>
<wgt id='10010'>0.22545E+02</wgt>
<wgt id='10011'>0.22486E+02</wgt>
<wgt id='10012'>0.22507E+02</wgt>
<wgt id='10013'>0.22545E+02</wgt>
<wgt id='10014'>0.22547E+02</wgt>
<wgt id='10015'>0.22563E+02</wgt>
<wgt id='10016'>0.22543E+02</wgt>
<wgt id='10017'>0.22476E+02</wgt>
<wgt id='10018'>0.22566E+02</wgt>
<wgt id='10019'>0.22421E+02</wgt>
<wgt id='10020'>0.22551E+02</wgt>
<wgt id='10021'>0.22550E+02</wgt>
<wgt id='10022'>0.22550E+02</wgt>
<wgt id='10023'>0.22556E+02</wgt>
<wgt id='10024'>0.22543E+02</wgt>
<wgt id='10025'>0.22528E+02</wgt>
<wgt id='10026'>0.22535E+02</wgt>
<wgt id='10027'>0.22537E+02</wgt>
<wgt id='10028'>0.22585E+02</wgt>
<wgt id='10029'>0.22561E+02</wgt>
<wgt id='10030'>0.22523E+02</wgt>
<wgt id='10031'>0.22076E+02</wgt>
<wgt id='10032'>0.22972E+02</wgt>
<wgt id='11000'>0.21508E+02</wgt>
<wgt id='11001'>0.21485E+02</wgt>
<wgt id='11002'>0.21544E+02</wgt>
<wgt id='11003'>0.21500E+02</wgt>
<wgt id='11004'>0.21509E+02</wgt>
<wgt id='11005'>0.21316E+02</wgt>
<wgt id='11006'>0.21506E+02</wgt>
<wgt id='11007'>0.21483E+02</wgt>
<wgt id='11008'>0.21488E+02</wgt>
<wgt id='11009'>0.21443E+02</wgt>
<wgt id='11010'>0.21501E+02</wgt>
<wgt id='11011'>0.21410E+02</wgt>
<wgt id='11012'>0.21512E+02</wgt>
<wgt id='11013'>0.21573E+02</wgt>
<wgt id='11014'>0.21458E+02</wgt>
<wgt id='11015'>0.21471E+02</wgt>
<wgt id='11016'>0.21495E+02</wgt>
<wgt id='11017'>0.21641E+02</wgt>
<wgt id='11018'>0.21516E+02</wgt>
<wgt id='11019'>0.21512E+02</wgt>
<wgt id='11020'>0.21515E+02</wgt>
<wgt id='11021'>0.21564E+02</wgt>
<wgt id='11022'>0.21805E+02</wgt>
<wgt id='11023'>0.21501E+02</wgt>
<wgt id='11024'>0.21463E+02</wgt>
<wgt id='11025'>0.21456E+02</wgt>
<wgt id='11026'>0.21505E+02</wgt>
<wgt id='11027'>0.21517E+02</wgt>
<wgt id='11028'>0.21482E+02</wgt>
<wgt id='11029'>0.21414E+02</wgt>
<wgt id='11030'>0.21513E+02</wgt>
<wgt id='11031'>0.21115E+02</wgt>
<wgt id='11032'>0.21844E+02</wgt>
<wgt id='12000'>0.22814E+02</wgt>
<wgt id='12001'>0.22790E+02</wgt>
<wgt id='12002'>0.22838E+02</wgt>
<wgt id='12003'>0.22850E+02</wgt>
<wgt id='12004'>0.22778E+02</wgt>
<wgt id='12005'>0.22843E+02</wgt>
<wgt id='12006'>0.22785E+02</wgt>
<wgt id='12007'>0.22869E+02</wgt>
<wgt id='12008'>0.22761E+02</wgt>
<wgt id='12009'>0.22829E+02</wgt>
<wgt id='12010'>0.22799E+02</wgt>
<wgt id='12011'>0.22779E+02</wgt>
<wgt id='12012'>0.22855E+02</wgt>
<wgt id='12013'>0.22734E+02</wgt>
<wgt id='12014'>0.22895E+02</wgt>
<wgt id='12015'>0.22839E+02</wgt>
<wgt id='12016'>0.22757E+02</wgt>
<wgt id='12017'>0.22879E+02</wgt>
<wgt id='12018'>0.22747E+02</wgt>
<wgt id='12019'>0.22750E+02</wgt>
<wgt id='12020'>0.22871E+02</wgt>
<wgt id='12021'>0.22855E+02</wgt>
<wgt id='12022'>0.22756E+02</wgt>
<wgt id='12023'>0.22727E+02</wgt>
<wgt id='12024'>0.22825E+02</wgt>
<wgt id='12025'>0.22844E+02</wgt>
<wgt id='12026'>0.22810E+02</wgt>
<wgt id='12027'>0.22830E+02</wgt>
<wgt id='12028'>0.22812E+02</wgt>
<wgt id='12050'>0.22814E+02</wgt>
<wgt id='12051'>0.22834E+02</wgt>
<wgt id='12052'>0.22775E+02</wgt>
<wgt id='12053'>0.22834E+02</wgt>
<wgt id='12054'>0.22787E+02</wgt>
<wgt id='12055'>0.22817E+02</wgt>
<wgt id='12056'>0.22756E+02</wgt>
<wgt id='12057'>0.22752E+02</wgt>
<wgt id='12058'>0.22872E+02</wgt>
<wgt id='12059'>0.22807E+02</wgt>
<wgt id='12060'>0.22825E+02</wgt>
<wgt id='12061'>0.22804E+02</wgt>
<wgt id='12062'>0.22824E+02</wgt>
<wgt id='12063'>0.22723E+02</wgt>
<wgt id='13000'>0.21454E+02</wgt>
<wgt id='13001'>0.21438E+02</wgt>
<wgt id='13002'>0.21467E+02</wgt>
<wgt id='13003'>0.21467E+02</wgt>
<wgt id='13004'>0.21438E+02</wgt>
<wgt id='13005'>0.21489E+02</wgt>
<wgt id='13006'>0.21416E+02</wgt>
<wgt id='13007'>0.21534E+02</wgt>
<wgt id='13008'>0.21373E+02</wgt>
<wgt id='13009'>0.21439E+02</wgt>
<wgt id='13010'>0.21467E+02</wgt>
<wgt id='13011'>0.21490E+02</wgt>
<wgt id='13012'>0.21415E+02</wgt>
<wgt id='13013'>0.21396E+02</wgt>
<wgt id='13014'>0.21509E+02</wgt>
<wgt id='13015'>0.21428E+02</wgt>
<wgt id='13016'>0.21451E+02</wgt>
<wgt id='13017'>0.21433E+02</wgt>
<wgt id='13018'>0.21469E+02</wgt>
<wgt id='13019'>0.21414E+02</wgt>
<wgt id='13020'>0.21489E+02</wgt>
<wgt id='13021'>0.21381E+02</wgt>
<wgt id='13022'>0.21508E+02</wgt>
<wgt id='13023'>0.21429E+02</wgt>
<wgt id='13024'>0.21481E+02</wgt>
<wgt id='13025'>0.21373E+02</wgt>
<wgt id='13026'>0.21506E+02</wgt>
<wgt id='13027'>0.21431E+02</wgt>
<wgt id='13028'>0.21488E+02</wgt>
<wgt id='13050'>0.21454E+02</wgt>
<wgt id='13051'>0.21488E+02</wgt>
<wgt id='13052'>0.21333E+02</wgt>
<wgt id='13053'>0.21486E+02</wgt>
<wgt id='13054'>0.21424E+02</wgt>
<wgt id='13055'>0.21355E+02</wgt>
<wgt id='13056'>0.21488E+02</wgt>
<wgt id='13057'>0.21403E+02</wgt>
<wgt id='13058'>0.21533E+02</wgt>
<wgt id='13059'>0.21446E+02</wgt>
<wgt id='13060'>0.21376E+02</wgt>
<wgt id='13061'>0.21426E+02</wgt>
<wgt id='13062'>0.21541E+02</wgt>
<wgt id='13063'>0.21390E+02</wgt>
<wgt id='14000'>0.22370E+02</wgt>
<wgt id='14001'>0.22366E+02</wgt>
<wgt id='14002'>0.22363E+02</wgt>
<wgt id='14003'>0.22359E+02</wgt>
<wgt id='14004'>0.22356E+02</wgt>
<wgt id='14005'>0.22352E+02</wgt>
<wgt id='14006'>0.22349E+02</wgt>
<wgt id='14007'>0.22345E+02</wgt>
<wgt id='14008'>0.22342E+02</wgt>
<wgt id='14009'>0.22338E+02</wgt>
<wgt id='14010'>0.22335E+02</wgt>
<wgt id='14011'>0.22331E+02</wgt>
<wgt id='14012'>0.22328E+02</wgt>
<wgt id='14013'>0.22324E+02</wgt>
<wgt id='14014'>0.22321E+02</wgt>
<wgt id='14015'>0.22317E+02</wgt>
<wgt id='14016'>0.22314E+02</wgt>
<wgt id='14017'>0.22310E+02</wgt>
<wgt id='14018'>0.22307E+02</wgt>
<wgt id='14019'>0.22303E+02</wgt>
<wgt id='14020'>0.22300E+02</wgt>
<wgt id='14021'>0.22296E+02</wgt>
<wgt id='14022'>0.22292E+02</wgt>
<wgt id='14023'>0.22289E+02</wgt>
<wgt id='14024'>0.22286E+02</wgt>
<wgt id='14025'>0.22282E+02</wgt>
<wgt id='14026'>0.22278E+02</wgt>
<wgt id='14027'>0.22275E+02</wgt>
<wgt id='14028'>0.22271E+02</wgt>
<wgt id='14029'>0.22268E+02</wgt>
<wgt id='14030'>0.22264E+02</wgt>
<wgt id='15000'>0.21268E+02</wgt>
<wgt id='15001'>0.21320E+02</wgt>
<wgt id='15002'>0.21340E+02</wgt>
<wgt id='15003'>0.21136E+02</wgt>
<wgt id='15004'>0.21258E+02</wgt>
<wgt id='15005'>0.21383E+02</wgt>
<wgt id='15006'>0.21229E+02</wgt>
<wgt id='15007'>0.21232E+02</wgt>
<wgt id='15008'>0.21289E+02</wgt>
<wgt id='15009'>0.21275E+02</wgt>
<wgt id='15010'>0.21256E+02</wgt>
<wgt id='15011'>0.21435E+02</wgt>
<wgt id='15012'>0.21091E+02</wgt>
<wgt id='15013'>0.21107E+02</wgt>
<wgt id='15014'>0.21076E+02</wgt>
<wgt id='15015'>0.21205E+02</wgt>
<wgt id='15016'>0.21298E+02</wgt>
<wgt id='15017'>0.21287E+02</wgt>
<wgt id='15018'>0.21300E+02</wgt>
<wgt id='15019'>0.21272E+02</wgt>
<wgt id='15020'>0.21369E+02</wgt>
<wgt id='15021'>0.21210E+02</wgt>
<wgt id='15022'>0.21283E+02</wgt>
<wgt id='15023'>0.21234E+02</wgt>
<wgt id='15024'>0.21239E+02</wgt>
<wgt id='15025'>0.21300E+02</wgt>
<wgt id='15026'>0.21274E+02</wgt>
<wgt id='15027'>0.21247E+02</wgt>
<wgt id='15028'>0.21277E+02</wgt>
<wgt id='15029'>0.21288E+02</wgt>
<wgt id='15030'>0.21276E+02</wgt>
<wgt id='15031'>0.21264E+02</wgt>
<wgt id='15032'>0.21286E+02</wgt>
<wgt id='15033'>0.21291E+02</wgt>
<wgt id='15034'>0.21255E+02</wgt>
<wgt id='15035'>0.21293E+02</wgt>
<wgt id='15036'>0.21272E+02</wgt>
<wgt id='15037'>0.21287E+02</wgt>
<wgt id='15038'>0.21274E+02</wgt>
<wgt id='15039'>0.21267E+02</wgt>
<wgt id='15040'>0.21245E+02</wgt>
<wgt id='15041'>0.21267E+02</wgt>
<wgt id='15042'>0.21258E+02</wgt>
<wgt id='15043'>0.21252E+02</wgt>
<wgt id='15044'>0.21266E+02</wgt>
<wgt id='15045'>0.21263E+02</wgt>
<wgt id='15046'>0.21240E+02</wgt>
<wgt id='15047'>0.21264E+02</wgt>
<wgt id='15048'>0.21280E+02</wgt>
<wgt id='15049'>0.21258E+02</wgt>
<wgt id='15050'>0.21273E+02</wgt>
<wgt id='15051'>0.21277E+02</wgt>
<wgt id='15052'>0.21278E+02</wgt>
<wgt id='15053'>0.21265E+02</wgt>
<wgt id='15054'>0.21260E+02</wgt>
<wgt id='15055'>0.21263E+02</wgt>
<wgt id='15056'>0.21289E+02</wgt>
<wgt id='15057'>0.21271E+02</wgt>
<wgt id='15058'>0.21246E+02</wgt>
<wgt id='15059'>0.21255E+02</wgt>
<wgt id='15060'>0.21258E+02</wgt>
<wgt id='15061'>0.21271E+02</wgt>
<wgt id='15062'>0.21270E+02</wgt>
<wgt id='15063'>0.21274E+02</wgt>
<wgt id='15064'>0.21264E+02</wgt>
<wgt id='15065'>0.21267E+02</wgt>
<wgt id='15066'>0.21270E+02</wgt>
<wgt id='15067'>0.21278E+02</wgt>
<wgt id='15068'>0.21270E+02</wgt>
<wgt id='15069'>0.21285E+02</wgt>
<wgt id='15070'>0.21261E+02</wgt>
<wgt id='15071'>0.21287E+02</wgt>
<wgt id='15072'>0.21286E+02</wgt>
<wgt id='15073'>0.21262E+02</wgt>
<wgt id='15074'>0.21269E+02</wgt>
<wgt id='15075'>0.21266E+02</wgt>
<wgt id='15076'>0.21268E+02</wgt>
<wgt id='15077'>0.21271E+02</wgt>
<wgt id='15078'>0.21269E+02</wgt>
<wgt id='15079'>0.21269E+02</wgt>
<wgt id='15080'>0.21288E+02</wgt>
<wgt id='15081'>0.21269E+02</wgt>
<wgt id='15082'>0.21278E+02</wgt>
<wgt id='15083'>0.21262E+02</wgt>
<wgt id='15084'>0.21264E+02</wgt>
<wgt id='15085'>0.21259E+02</wgt>
<wgt id='15086'>0.21270E+02</wgt>
<wgt id='15087'>0.21252E+02</wgt>
<wgt id='15088'>0.21261E+02</wgt>
<wgt id='15089'>0.21260E+02</wgt>
<wgt id='15090'>0.21270E+02</wgt>
<wgt id='15091'>0.21267E+02</wgt>
<wgt id='15092'>0.21266E+02</wgt>
<wgt id='15093'>0.21263E+02</wgt>
<wgt id='15094'>0.21266E+02</wgt>
<wgt id='15095'>0.21272E+02</wgt>
<wgt id='15096'>0.21265E+02</wgt>
<wgt id='15097'>0.21270E+02</wgt>
<wgt id='15098'>0.21267E+02</wgt>
<wgt id='15099'>0.21263E+02</wgt>
<wgt id='15100'>0.21269E+02</wgt>
<wgt id='15101'>0.21268E+02</wgt>
<wgt id='15102'>0.21266E+02</wgt>
<wgt id='15103'>0.21268E+02</wgt>
<wgt id='15104'>0.21268E+02</wgt>
<wgt id='15105'>0.21268E+02</wgt>
<wgt id='15106'>0.21268E+02</wgt>
<wgt id='15107'>0.21267E+02</wgt>
<wgt id='1500'>0.22401E+02</wgt>
<wgt id='1501'>0.20838E+02</wgt>
<wgt id='1502'>0.22571E+02</wgt>
<wgt id='1503'>0.22304E+02</wgt>
<wgt id='1504'>0.22064E+02</wgt>
<wgt id='1505'>0.20176E+02</wgt>
<wgt id='1506'>0.22296E+02</wgt>
<wgt id='1507'>0.22675E+02</wgt>
<wgt id='1508'>0.22283E+02</wgt>
<wgt id='1509'>0.22307E+02</wgt>
<wgt id='1510'>0.22054E+02</wgt>
<wgt id='1511'>0.22207E+02</wgt>
<wgt id='1512'>0.22575E+02</wgt>
<wgt id='1513'>0.22750E+02</wgt>
<wgt id='1514'>0.22135E+02</wgt>
<wgt id='1515'>0.22392E+02</wgt>
<wgt id='1516'>0.22788E+02</wgt>
<wgt id='1517'>0.22230E+02</wgt>
<wgt id='1518'>0.22289E+02</wgt>
<wgt id='1519'>0.22516E+02</wgt>
<wgt id='1520'>0.22565E+02</wgt>
<wgt id='1521'>0.22447E+02</wgt>
<wgt id='1522'>0.22229E+02</wgt>
<wgt id='1523'>0.23775E+02</wgt>
<wgt id='1524'>0.22100E+02</wgt>
<wgt id='1525'>0.22665E+02</wgt>
<wgt id='1526'>0.21916E+02</wgt>
<wgt id='1527'>0.22459E+02</wgt>
<wgt id='1528'>0.22313E+02</wgt>
<wgt id='1529'>0.22127E+02</wgt>
<wgt id='1530'>0.22596E+02</wgt>
<wgt id='1531'>0.22246E+02</wgt>
<wgt id='1532'>0.21934E+02</wgt>
<wgt id='1533'>0.22884E+02</wgt>
<wgt id='1534'>0.22302E+02</wgt>
<wgt id='1535'>0.23163E+02</wgt>
<wgt id='1536'>0.22967E+02</wgt>
<wgt id='1537'>0.22560E+02</wgt>
<wgt id='1538'>0.22183E+02</wgt>
<wgt id='1539'>0.21670E+02</wgt>
<wgt id='1540'>0.22621E+02</wgt>
<wgt id='1541'>0.22353E+02</wgt>
<wgt id='1542'>0.22622E+02</wgt>
<wgt id='1543'>0.22452E+02</wgt>
<wgt id='1544'>0.22176E+02</wgt>
<wgt id='1545'>0.22827E+02</wgt>
<wgt id='1546'>0.22387E+02</wgt>
<wgt id='1547'>0.22092E+02</wgt>
<wgt id='1548'>0.22041E+02</wgt>
<wgt id='1549'>0.22718E+02</wgt>
<wgt id='1550'>0.22421E+02</wgt>
<wgt id='1551'>0.22276E+02</wgt>
<wgt id='1552'>0.22319E+02</wgt>
<wgt id='1553'>0.22570E+02</wgt>
<wgt id='1554'>0.22401E+02</wgt>
<wgt id='1555'>0.22475E+02</wgt>
<wgt id='1556'>0.21970E+02</wgt>
<wgt id='1557'>0.23200E+02</wgt>
<wgt id='1558'>0.22220E+02</wgt>
<wgt id='1559'>0.22615E+02</wgt>
<wgt id='1560'>0.22354E+02</wgt>
<wgt id='1561'>0.22636E+02</wgt>
<wgt id='1562'>0.22402E+02</wgt>
<wgt id='1563'>0.22707E+02</wgt>
<wgt id='1564'>0.22312E+02</wgt>
<wgt id='1565'>0.22639E+02</wgt>
<wgt id='1566'>0.22388E+02</wgt>
<wgt id='1567'>0.23333E+02</wgt>
<wgt id='1568'>0.22211E+02</wgt>
<wgt id='1569'>0.21990E+02</wgt>
<wgt id='1570'>0.22361E+02</wgt>
<wgt id='1571'>0.22838E+02</wgt>
<wgt id='1572'>0.22144E+02</wgt>
<wgt id='1573'>0.21141E+02</wgt>
<wgt id='1574'>0.22436E+02</wgt>
<wgt id='1575'>0.22308E+02</wgt>
<wgt id='1576'>0.21738E+02</wgt>
<wgt id='1577'>0.22433E+02</wgt>
<wgt id='1578'>0.23085E+02</wgt>
<wgt id='1579'>0.22375E+02</wgt>
<wgt id='1580'>0.22555E+02</wgt>
<wgt id='1581'>0.22505E+02</wgt>
<wgt id='1582'>0.22208E+02</wgt>
<wgt id='1583'>0.22230E+02</wgt>
<wgt id='1584'>0.22551E+02</wgt>
<wgt id='1585'>0.21907E+02</wgt>
<wgt id='1586'>0.22391E+02</wgt>
<wgt id='1587'>0.22366E+02</wgt>
<wgt id='1588'>0.22500E+02</wgt>
<wgt id='1589'>0.22633E+02</wgt>
<wgt id='1590'>0.22243E+02</wgt>
<wgt id='1591'>0.21855E+02</wgt>
<wgt id='1592'>0.22863E+02</wgt>
<wgt id='1593'>0.22309E+02</wgt>
<wgt id='1594'>0.22779E+02</wgt>
<wgt id='1595'>0.22244E+02</wgt>
<wgt id='1596'>0.22600E+02</wgt>
<wgt id='1597'>0.22492E+02</wgt>
<wgt id='1598'>0.23182E+02</wgt>
<wgt id='1599'>0.22929E+02</wgt>
<wgt id='1600'>0.22313E+02</wgt>
<wgt id='1601'>0.22017E+02</wgt>
<wgt id='1602'>0.22598E+02</wgt>
<wgt id='1700'>0.21488E+02</wgt>
<wgt id='1800'>0.24840E+02</wgt>
<wgt id='1850'>0.29835E+02</wgt>
<wgt id='1900'>0.24619E+02</wgt>
<wgt id='1950'>0.28824E+02</wgt>
</rwgt>
</event>
<event>
      4   9999  2.16956E+01  3.14596E+01 -1.00000E+00  1.49225E-01
      21    -1     0     0   502   501  0.000000000E+00  0.000000000E+00  2.355335282E+02  2.355335282E+02  0.000000000E+00  0.00000E+00  9.000E+00
      21    -1     0     0   501   511  0.000000000E+00  0.000000000E+00 -9.969735224E+01  9.969735224E+01  0.000000000E+00  0.00000E+00  9.000E+00
      25     1     1     2     0     0  3.018825872E+01  8.852876255E+00  2.146447863E+02  2.503751119E+02  1.250024320E+02  0.00000E+00  9.000E+00
      21     1     1     2   502   511 -3.018825872E+01 -8.852876255E+00 -7.880861035E+01  8.485576850E+01  9.536743164E-07  0.00000E+00  9.000E+00
#rwgt            1           1   18.058959707830688                1        2965           0
<rwgt>
<wgt id='1001'>0.21696E+02</wgt>
<wgt id='1002'>0.24325E+02</wgt>
<wgt id='1003'>0.18904E+02</wgt>
<wgt id='1004'>0.17602E+02</wgt>
<wgt id='1005'>0.19635E+02</wgt>
<wgt id='1006'>0.15425E+02</wgt>
<wgt id='1007'>0.27418E+02</wgt>
<wgt id='1008'>0.30922E+02</wgt>
<wgt id='1009'>0.23731E+02</wgt>
<wgt id='2000'>0.21696E+02</wgt>
<wgt id='2001'>0.21663E+02</wgt>
<wgt id='2002'>0.21758E+02</wgt>
<wgt id='2003'>0.21741E+02</wgt>
<wgt id='2004'>0.21706E+02</wgt>
<wgt id='2005'>0.21673E+02</wgt>
<wgt id='2006'>0.21665E+02</wgt>
<wgt id='2007'>0.21654E+02</wgt>
<wgt id='2008'>0.21702E+02</wgt>
<wgt id='2009'>0.21690E+02</wgt>
<wgt id='2010'>0.21673E+02</wgt>
<wgt id='2011'>0.21764E+02</wgt>
<wgt id='2012'>0.21771E+02</wgt>
<wgt id='2013'>0.21785E+02</wgt>
<wgt id='2014'>0.21753E+02</wgt>
<wgt id='2015'>0.21740E+02</wgt>
<wgt id='2016'>0.21695E+02</wgt>
<wgt id='2017'>0.21693E+02</wgt>
<wgt id='2018'>0.21748E+02</wgt>
<wgt id='2019'>0.21689E+02</wgt>
<wgt id='2020'>0.21777E+02</wgt>
<wgt id='2021'>0.21655E+02</wgt>
<wgt id='2022'>0.21763E+02</wgt>
<wgt id='2023'>0.21739E+02</wgt>
<wgt id='2024'>0.21700E+02</wgt>
<wgt id='2025'>0.21765E+02</wgt>
<wgt id='2026'>0.21739E+02</wgt>
<wgt id='2027'>0.21674E+02</wgt>
<wgt id='2028'>0.21669E+02</wgt>
<wgt id='2029'>0.21713E+02</wgt>
<wgt id='2030'>0.21707E+02</wgt>
<wgt id='2031'>0.21708E+02</wgt>
<wgt id='2032'>0.21695E+02</wgt>
<wgt id='2033'>0.21701E+02</wgt>
<wgt id='2034'>0.21702E+02</wgt>
<wgt id='2035'>0.21693E+02</wgt>
<wgt id='2036'>0.21696E+02</wgt>
<wgt id='2037'>0.21700E+02</wgt>
<wgt id='2038'>0.21700E+02</wgt>
<wgt id='2039'>0.21691E+02</wgt>
<wgt id='2040'>0.21693E+02</wgt>
<wgt id='2041'>0.21690E+02</wgt>
<wgt id='2042'>0.21679E+02</wgt>
<wgt id='2043'>0.21704E+02</wgt>
<wgt id='2044'>0.21706E+02</wgt>
<wgt id='2045'>0.21695E+02</wgt>
<wgt id='2046'>0.21706E+02</wgt>
<wgt id='2047'>0.21705E+02</wgt>
<wgt id='2048'>0.21695E+02</wgt>
<wgt id='2049'>0.21694E+02</wgt>
<wgt id='2050'>0.21706E+02</wgt>
<wgt id='2051'>0.21700E+02</wgt>
<wgt id='2052'>0.21687E+02</wgt>
<wgt id='2053'>0.21693E+02</wgt>
<wgt id='2054'>0.21697E+02</wgt>
<wgt id='2055'>0.21697E+02</wgt>
<wgt id='2056'>0.21696E+02</wgt>
<wgt id='2057'>0.21692E+02</wgt>
<wgt id='2058'>0.21698E+02</wgt>
<wgt id='2059'>0.21693E+02</wgt>
<wgt id='2060'>0.21695E+02</wgt>
<wgt id='2061'>0.21695E+02</wgt>
<wgt id='2062'>0.21702E+02</wgt>
<wgt id='2063'>0.21692E+02</wgt>
<wgt id='2064'>0.21695E+02</wgt>
<wgt id='2065'>0.21702E+02</wgt>
<wgt id='2066'>0.21697E+02</wgt>
<wgt id='2067'>0.21694E+02</wgt>
<wgt id='2068'>0.21698E+02</wgt>
<wgt id='2069'>0.21691E+02</wgt>
<wgt id='2070'>0.21689E+02</wgt>
<wgt id='2071'>0.21687E+02</wgt>
<wgt id='2072'>0.21695E+02</wgt>
<wgt id='2073'>0.21696E+02</wgt>
<wgt id='2074'>0.21685E+02</wgt>
<wgt id='2075'>0.21698E+02</wgt>
<wgt id='2076'>0.21691E+02</wgt>
<wgt id='2077'>0.21695E+02</wgt>
<wgt id='2078'>0.21697E+02</wgt>
<wgt id='2079'>0.21696E+02</wgt>
<wgt id='2080'>0.21697E+02</wgt>
<wgt id='2081'>0.21697E+02</wgt>
<wgt id='2082'>0.21697E+02</wgt>
<wgt id='2083'>0.21698E+02</wgt>
<wgt id='2084'>0.21698E+02</wgt>
<wgt id='2085'>0.21696E+02</wgt>
<wgt id='2086'>0.21694E+02</wgt>
<wgt id='2087'>0.21695E+02</wgt>
<wgt id='2088'>0.21697E+02</wgt>
<wgt id='2089'>0.21694E+02</wgt>
<wgt id='2090'>0.21696E+02</wgt>
<wgt id='2091'>0.21696E+02</wgt>
<wgt id='2092'>0.21699E+02</wgt>
<wgt id='2093'>0.21694E+02</wgt>
<wgt id='2094'>0.21700E+02</wgt>
<wgt id='2095'>0.21697E+02</wgt>
<wgt id='2096'>0.21694E+02</wgt>
<wgt id='2097'>0.21697E+02</wgt>
<wgt id='2098'>0.21695E+02</wgt>
<wgt id='2099'>0.21695E+02</wgt>
<wgt id='2100'>0.21696E+02</wgt>
<wgt id='2101'>0.21057E+02</wgt>
<wgt id='2102'>0.22283E+02</wgt>
<wgt id='2104'>0.18752E+02</wgt>
<wgt id='2105'>0.19294E+02</wgt>
<wgt id='2106'>0.19886E+02</wgt>
<wgt id='2107'>0.20509E+02</wgt>
<wgt id='2108'>0.21414E+02</wgt>
<wgt id='2109'>0.22036E+02</wgt>
<wgt id='2110'>0.22841E+02</wgt>
<wgt id='2111'>0.23451E+02</wgt>
<wgt id='3000'>0.22739E+02</wgt>
<wgt id='3001'>0.22801E+02</wgt>
<wgt id='3002'>0.22672E+02</wgt>
<wgt id='3003'>0.22790E+02</wgt>
<wgt id='3004'>0.22771E+02</wgt>
<wgt id='3005'>0.22798E+02</wgt>
<wgt id='3006'>0.22755E+02</wgt>
<wgt id='3007'>0.22747E+02</wgt>
<wgt id='3008'>0.22700E+02</wgt>
<wgt id='3009'>0.22681E+02</wgt>
<wgt id='3010'>0.22682E+02</wgt>
<wgt id='3011'>0.22777E+02</wgt>
<wgt id='3012'>0.22844E+02</wgt>
<wgt id='3013'>0.22640E+02</wgt>
<wgt id='3014'>0.22787E+02</wgt>
<wgt id='3015'>0.22761E+02</wgt>
<wgt id='3016'>0.22754E+02</wgt>
<wgt id='3017'>0.22794E+02</wgt>
<wgt id='3018'>0.22784E+02</wgt>
<wgt id='3019'>0.22672E+02</wgt>
<wgt id='3020'>0.22679E+02</wgt>
<wgt id='3021'>0.22660E+02</wgt>
<wgt id='3022'>0.22733E+02</wgt>
<wgt id='3023'>0.22689E+02</wgt>
<wgt id='3024'>0.22683E+02</wgt>
<wgt id='3025'>0.22736E+02</wgt>
<wgt id='3026'>0.22779E+02</wgt>
<wgt id='3027'>0.22745E+02</wgt>
<wgt id='3028'>0.22679E+02</wgt>
<wgt id='3029'>0.22733E+02</wgt>
<wgt id='3030'>0.22759E+02</wgt>
<wgt id='3031'>0.22748E+02</wgt>
<wgt id='3032'>0.22750E+02</wgt>
<wgt id='3033'>0.22747E+02</wgt>
<wgt id='3034'>0.22750E+02</wgt>
<wgt id='3035'>0.22750E+02</wgt>
<wgt id='3036'>0.22743E+02</wgt>
<wgt id='3037'>0.22739E+02</wgt>
<wgt id='3038'>0.22739E+02</wgt>
<wgt id='3039'>0.22748E+02</wgt>
<wgt id='3040'>0.22737E+02</wgt>
<wgt id='3041'>0.22735E+02</wgt>
<wgt id='3042'>0.22724E+02</wgt>
<wgt id='3043'>0.22724E+02</wgt>
<wgt id='3044'>0.22750E+02</wgt>
<wgt id='3045'>0.22751E+02</wgt>
<wgt id='3046'>0.22745E+02</wgt>
<wgt id='3047'>0.22735E+02</wgt>
<wgt id='3048'>0.22747E+02</wgt>
<wgt id='3049'>0.22734E+02</wgt>
<wgt id='3050'>0.22736E+02</wgt>
<wgt id='3051'>0.22756E+02</wgt>
<wgt id='3052'>0.22736E+02</wgt>
<wgt id='3053'>0.22737E+02</wgt>
<wgt id='3054'>0.22735E+02</wgt>
<wgt id='3055'>0.22743E+02</wgt>
<wgt id='3056'>0.22743E+02</wgt>
<wgt id='3057'>0.22736E+02</wgt>
<wgt id='3058'>0.22735E+02</wgt>
<wgt id='3059'>0.22741E+02</wgt>
<wgt id='3060'>0.22741E+02</wgt>
<wgt id='3061'>0.22747E+02</wgt>
<wgt id='3062'>0.22741E+02</wgt>
<wgt id='3063'>0.22742E+02</wgt>
<wgt id='3064'>0.22739E+02</wgt>
<wgt id='3065'>0.22742E+02</wgt>
<wgt id='3066'>0.22742E+02</wgt>
<wgt id='3067'>0.22732E+02</wgt>
<wgt id='3068'>0.22738E+02</wgt>
<wgt id='3069'>0.22733E+02</wgt>
<wgt id='3070'>0.22733E+02</wgt>
<wgt id='3071'>0.22739E+02</wgt>
<wgt id='3072'>0.22743E+02</wgt>
<wgt id='3073'>0.22740E+02</wgt>
<wgt id='3074'>0.22742E+02</wgt>
<wgt id='3075'>0.22742E+02</wgt>
<wgt id='3076'>0.22739E+02</wgt>
<wgt id='3077'>0.22737E+02</wgt>
<wgt id='3078'>0.22744E+02</wgt>
<wgt id='3079'>0.22738E+02</wgt>
<wgt id='3080'>0.22738E+02</wgt>
<wgt id='3081'>0.22739E+02</wgt>
<wgt id='3082'>0.22738E+02</wgt>
<wgt id='3083'>0.22737E+02</wgt>
<wgt id='3084'>0.22736E+02</wgt>
<wgt id='3085'>0.22738E+02</wgt>
<wgt id='3086'>0.22737E+02</wgt>
<wgt id='3087'>0.22737E+02</wgt>
<wgt id='3088'>0.22738E+02</wgt>
<wgt id='3089'>0.22739E+02</wgt>
<wgt id='3090'>0.22738E+02</wgt>
<wgt id='3091'>0.22741E+02</wgt>
<wgt id='3092'>0.22739E+02</wgt>
<wgt id='3093'>0.22738E+02</wgt>
<wgt id='3094'>0.22741E+02</wgt>
<wgt id='3095'>0.22740E+02</wgt>
<wgt id='3096'>0.22740E+02</wgt>
<wgt id='3097'>0.22737E+02</wgt>
<wgt id='3098'>0.22741E+02</wgt>
<wgt id='3099'>0.22741E+02</wgt>
<wgt id='3100'>0.22739E+02</wgt>
<wgt id='3101'>0.22081E+02</wgt>
<wgt id='3102'>0.23475E+02</wgt>
<wgt id='5000'>0.21065E+02</wgt>
<wgt id='5001'>0.21005E+02</wgt>
<wgt id='5002'>0.21023E+02</wgt>
<wgt id='5003'>0.20968E+02</wgt>
<wgt id='5004'>0.21075E+02</wgt>
<wgt id='5005'>0.20723E+02</wgt>
<wgt id='5006'>0.21210E+02</wgt>
<wgt id='5007'>0.21095E+02</wgt>
<wgt id='5008'>0.20901E+02</wgt>
<wgt id='5009'>0.21251E+02</wgt>
<wgt id='5010'>0.20959E+02</wgt>
<wgt id='5011'>0.21043E+02</wgt>
<wgt id='5012'>0.21041E+02</wgt>
<wgt id='5013'>0.20700E+02</wgt>
<wgt id='5014'>0.21117E+02</wgt>
<wgt id='5015'>0.21200E+02</wgt>
<wgt id='5016'>0.20644E+02</wgt>
<wgt id='5017'>0.21070E+02</wgt>
<wgt id='5018'>0.21061E+02</wgt>
<wgt id='5019'>0.21011E+02</wgt>
<wgt id='5020'>0.21114E+02</wgt>
<wgt id='5021'>0.21128E+02</wgt>
<wgt id='5022'>0.21024E+02</wgt>
<wgt id='5023'>0.20997E+02</wgt>
<wgt id='5024'>0.21134E+02</wgt>
<wgt id='5025'>0.21046E+02</wgt>
<wgt id='5026'>0.21080E+02</wgt>
<wgt id='5027'>0.21266E+02</wgt>
<wgt id='5028'>0.20724E+02</wgt>
<wgt id='5029'>0.20691E+02</wgt>
<wgt id='5030'>0.21289E+02</wgt>
<wgt id='5031'>0.20847E+02</wgt>
<wgt id='5032'>0.21379E+02</wgt>
<wgt id='5033'>0.20933E+02</wgt>
<wgt id='5034'>0.21176E+02</wgt>
<wgt id='5035'>0.20799E+02</wgt>
<wgt id='5036'>0.21283E+02</wgt>
<wgt id='5037'>0.20977E+02</wgt>
<wgt id='5038'>0.21154E+02</wgt>
<wgt id='5039'>0.21416E+02</wgt>
<wgt id='5040'>0.20886E+02</wgt>
<wgt id='5041'>0.20898E+02</wgt>
<wgt id='5042'>0.21079E+02</wgt>
<wgt id='5043'>0.21224E+02</wgt>
<wgt id='5044'>0.20589E+02</wgt>
<wgt id='5045'>0.21584E+02</wgt>
<wgt id='5046'>0.20907E+02</wgt>
<wgt id='5047'>0.21178E+02</wgt>
<wgt id='5048'>0.21175E+02</wgt>
<wgt id='5049'>0.21077E+02</wgt>
<wgt id='5050'>0.21104E+02</wgt>
<wgt id='5051'>0.21110E+02</wgt>
<wgt id='5052'>0.21056E+02</wgt>
<wgt id='5053'>0.20848E+02</wgt>
<wgt id='5054'>0.21305E+02</wgt>
<wgt id='5055'>0.20937E+02</wgt>
<wgt id='5056'>0.21220E+02</wgt>
<wgt id='5060'>0.20433E+02</wgt>
<wgt id='5070'>0.21653E+02</wgt>
<wgt id='4000'>0.22222E+02</wgt>
<wgt id='4001'>0.22241E+02</wgt>
<wgt id='4002'>0.22279E+02</wgt>
<wgt id='4003'>0.22522E+02</wgt>
<wgt id='4004'>0.22080E+02</wgt>
<wgt id='4005'>0.22289E+02</wgt>
<wgt id='4006'>0.22170E+02</wgt>
<wgt id='4007'>0.22409E+02</wgt>
<wgt id='4008'>0.22150E+02</wgt>
<wgt id='4009'>0.21838E+02</wgt>
<wgt id='4010'>0.22458E+02</wgt>
<wgt id='4011'>0.22534E+02</wgt>
<wgt id='4012'>0.22041E+02</wgt>
<wgt id='4013'>0.21493E+02</wgt>
<wgt id='4014'>0.22635E+02</wgt>
<wgt id='4015'>0.22447E+02</wgt>
<wgt id='4016'>0.22076E+02</wgt>
<wgt id='4017'>0.21986E+02</wgt>
<wgt id='4018'>0.22502E+02</wgt>
<wgt id='4019'>0.22480E+02</wgt>
<wgt id='4020'>0.21932E+02</wgt>
<wgt id='4021'>0.22266E+02</wgt>
<wgt id='4022'>0.22123E+02</wgt>
<wgt id='4023'>0.22129E+02</wgt>
<wgt id='4024'>0.22303E+02</wgt>
<wgt id='4025'>0.22003E+02</wgt>
<wgt id='4026'>0.22420E+02</wgt>
<wgt id='4027'>0.22156E+02</wgt>
<wgt id='4028'>0.22309E+02</wgt>
<wgt id='4029'>0.22074E+02</wgt>
<wgt id='4030'>0.22273E+02</wgt>
<wgt id='4031'>0.22256E+02</wgt>
<wgt id='4032'>0.22177E+02</wgt>
<wgt id='4033'>0.22195E+02</wgt>
<wgt id='4034'>0.22278E+02</wgt>
<wgt id='4035'>0.22489E+02</wgt>
<wgt id='4036'>0.21966E+02</wgt>
<wgt id='4037'>0.22367E+02</wgt>
<wgt id='4038'>0.21972E+02</wgt>
<wgt id='4039'>0.22200E+02</wgt>
<wgt id='4040'>0.22204E+02</wgt>
<wgt id='4041'>0.22374E+02</wgt>
<wgt id='4042'>0.22084E+02</wgt>
<wgt id='4043'>0.22367E+02</wgt>
<wgt id='4044'>0.22087E+02</wgt>
<wgt id='4045'>0.21939E+02</wgt>
<wgt id='4046'>0.22171E+02</wgt>
<wgt id='4047'>0.22029E+02</wgt>
<wgt id='4048'>0.22288E+02</wgt>
<wgt id='4049'>0.22178E+02</wgt>
<wgt id='4050'>0.21948E+02</wgt>
<wgt id='4051'>0.22176E+02</wgt>
<wgt id='4052'>0.22182E+02</wgt>
<wgt id='4053'>0.21635E+02</wgt>
<wgt id='4054'>0.22300E+02</wgt>
<wgt id='4055'>0.22074E+02</wgt>
<wgt id='4056'>0.22395E+02</wgt>
<wgt id='4060'>0.21489E+02</wgt>
<wgt id='4070'>0.22925E+02</wgt>
<wgt id='4080'>0.22389E+02</wgt>
<wgt id='6000'>0.22445E+02</wgt>
<wgt id='6001'>0.22461E+02</wgt>
<wgt id='6002'>0.22427E+02</wgt>
<wgt id='6003'>0.22456E+02</wgt>
<wgt id='6004'>0.22437E+02</wgt>
<wgt id='6005'>0.22493E+02</wgt>
<wgt id='6006'>0.22399E+02</wgt>
<wgt id='6007'>0.22357E+02</wgt>
<wgt id='6008'>0.22543E+02</wgt>
<wgt id='6009'>0.22523E+02</wgt>
<wgt id='6010'>0.22368E+02</wgt>
<wgt id='6011'>0.22494E+02</wgt>
<wgt id='6012'>0.22340E+02</wgt>
<wgt id='6013'>0.22420E+02</wgt>
<wgt id='6014'>0.22489E+02</wgt>
<wgt id='6015'>0.22378E+02</wgt>
<wgt id='6016'>0.22482E+02</wgt>
<wgt id='6017'>0.22316E+02</wgt>
<wgt id='6018'>0.22597E+02</wgt>
<wgt id='6019'>0.22468E+02</wgt>
<wgt id='6020'>0.22424E+02</wgt>
<wgt id='6021'>0.22398E+02</wgt>
<wgt id='6022'>0.22509E+02</wgt>
<wgt id='6023'>0.22291E+02</wgt>
<wgt id='6024'>0.22554E+02</wgt>
<wgt id='6025'>0.22284E+02</wgt>
<wgt id='6026'>0.22552E+02</wgt>
<wgt id='6027'>0.22506E+02</wgt>
<wgt id='6028'>0.22444E+02</wgt>
<wgt id='6029'>0.22548E+02</wgt>
<wgt id='6030'>0.22324E+02</wgt>
<wgt id='6031'>0.22449E+02</wgt>
<wgt id='6032'>0.22432E+02</wgt>
<wgt id='6033'>0.22490E+02</wgt>
<wgt id='6034'>0.22398E+02</wgt>
<wgt id='6035'>0.22440E+02</wgt>
<wgt id='6036'>0.22497E+02</wgt>
<wgt id='6037'>0.22484E+02</wgt>
<wgt id='6038'>0.22443E+02</wgt>
<wgt id='6039'>0.22419E+02</wgt>
<wgt id='6040'>0.22473E+02</wgt>
<wgt id='6041'>0.22401E+02</wgt>
<wgt id='6042'>0.22499E+02</wgt>
<wgt id='6043'>0.22732E+02</wgt>
<wgt id='6044'>0.22317E+02</wgt>
<wgt id='6045'>0.22427E+02</wgt>
<wgt id='6046'>0.22489E+02</wgt>
<wgt id='6047'>0.22487E+02</wgt>
<wgt id='6048'>0.22244E+02</wgt>
<wgt id='6049'>0.22468E+02</wgt>
<wgt id='6050'>0.22423E+02</wgt>
<wgt id='7000'>0.21056E+02</wgt>
<wgt id='7001'>0.21058E+02</wgt>
<wgt id='7002'>0.21053E+02</wgt>
<wgt id='7003'>0.21118E+02</wgt>
<wgt id='7004'>0.20994E+02</wgt>
<wgt id='7005'>0.21095E+02</wgt>
<wgt id='7006'>0.21041E+02</wgt>
<wgt id='7007'>0.20973E+02</wgt>
<wgt id='7008'>0.21139E+02</wgt>
<wgt id='7009'>0.21094E+02</wgt>
<wgt id='7010'>0.21018E+02</wgt>
<wgt id='7011'>0.20853E+02</wgt>
<wgt id='7012'>0.21144E+02</wgt>
<wgt id='7013'>0.21056E+02</wgt>
<wgt id='7014'>0.21056E+02</wgt>
<wgt id='7015'>0.20995E+02</wgt>
<wgt id='7016'>0.21121E+02</wgt>
<wgt id='7017'>0.20971E+02</wgt>
<wgt id='7018'>0.21101E+02</wgt>
<wgt id='7019'>0.21031E+02</wgt>
<wgt id='7020'>0.21091E+02</wgt>
<wgt id='7021'>0.21050E+02</wgt>
<wgt id='7022'>0.21059E+02</wgt>
<wgt id='7023'>0.21240E+02</wgt>
<wgt id='7024'>0.20870E+02</wgt>
<wgt id='7025'>0.21133E+02</wgt>
<wgt id='7026'>0.20867E+02</wgt>
<wgt id='7027'>0.21140E+02</wgt>
<wgt id='7028'>0.21024E+02</wgt>
<wgt id='7029'>0.20985E+02</wgt>
<wgt id='7030'>0.21230E+02</wgt>
<wgt id='7031'>0.21047E+02</wgt>
<wgt id='7032'>0.21079E+02</wgt>
<wgt id='7033'>0.21036E+02</wgt>
<wgt id='7034'>0.21105E+02</wgt>
<wgt id='7035'>0.21088E+02</wgt>
<wgt id='7036'>0.21052E+02</wgt>
<wgt id='7037'>0.21063E+02</wgt>
<wgt id='7038'>0.21064E+02</wgt>
<wgt id='7039'>0.21028E+02</wgt>
<wgt id='7040'>0.21075E+02</wgt>
<wgt id='7041'>0.21018E+02</wgt>
<wgt id='7042'>0.21088E+02</wgt>
<wgt id='7043'>0.21073E+02</wgt>
<wgt id='7044'>0.20958E+02</wgt>
<wgt id='7045'>0.20881E+02</wgt>
<wgt id='7046'>0.21132E+02</wgt>
<wgt id='7047'>0.21091E+02</wgt>
<wgt id='7048'>0.21035E+02</wgt>
<wgt id='7049'>0.21019E+02</wgt>
<wgt id='7050'>0.21048E+02</wgt>
<wgt id='7060'>0.33964E+02</wgt>
<wgt id='8000'>0.21378E+02</wgt>
<wgt id='8001'>0.21371E+02</wgt>
<wgt id='8002'>0.21384E+02</wgt>
<wgt id='8003'>0.21379E+02</wgt>
<wgt id='8004'>0.21377E+02</wgt>
<wgt id='8005'>0.21327E+02</wgt>
<wgt id='8006'>0.21367E+02</wgt>
<wgt id='8007'>0.21354E+02</wgt>
<wgt id='8008'>0.21416E+02</wgt>
<wgt id='8009'>0.21457E+02</wgt>
<wgt id='8010'>0.21377E+02</wgt>
<wgt id='8011'>0.21367E+02</wgt>
<wgt id='8012'>0.21350E+02</wgt>
<wgt id='8013'>0.21369E+02</wgt>
<wgt id='8014'>0.21371E+02</wgt>
<wgt id='8015'>0.21361E+02</wgt>
<wgt id='8016'>0.21386E+02</wgt>
<wgt id='8017'>0.21379E+02</wgt>
<wgt id='8018'>0.21382E+02</wgt>
<wgt id='8019'>0.21408E+02</wgt>
<wgt id='8020'>0.21318E+02</wgt>
<wgt id='8021'>0.21378E+02</wgt>
<wgt id='8022'>0.21268E+02</wgt>
<wgt id='8023'>0.21394E+02</wgt>
<wgt id='8024'>0.21408E+02</wgt>
<wgt id='8025'>0.21438E+02</wgt>
<wgt id='8026'>0.21418E+02</wgt>
<wgt id='8027'>0.21347E+02</wgt>
<wgt id='8028'>0.21398E+02</wgt>
<wgt id='8029'>0.21232E+02</wgt>
<wgt id='8500'>0.22352E+02</wgt>
<wgt id='8501'>0.22287E+02</wgt>
<wgt id='8502'>0.22496E+02</wgt>
<wgt id='8503'>0.22467E+02</wgt>
<wgt id='8504'>0.22308E+02</wgt>
<wgt id='8505'>0.22300E+02</wgt>
<wgt id='8506'>0.22317E+02</wgt>
<wgt id='8507'>0.22441E+02</wgt>
<wgt id='8508'>0.22534E+02</wgt>
<wgt id='8509'>0.22291E+02</wgt>
<wgt id='8510'>0.22649E+02</wgt>
<wgt id='8511'>0.22366E+02</wgt>
<wgt id='8512'>0.22145E+02</wgt>
<wgt id='8513'>0.22376E+02</wgt>
<wgt id='8514'>0.22182E+02</wgt>
<wgt id='8515'>0.22392E+02</wgt>
<wgt id='8516'>0.22399E+02</wgt>
<wgt id='8517'>0.22273E+02</wgt>
<wgt id='8518'>0.22291E+02</wgt>
<wgt id='8519'>0.22302E+02</wgt>
<wgt id='8520'>0.22361E+02</wgt>
<wgt id='8521'>0.22236E+02</wgt>
<wgt id='8522'>0.22374E+02</wgt>
<wgt id='8523'>0.22305E+02</wgt>
<wgt id='8524'>0.22339E+02</wgt>
<wgt id='8525'>0.22325E+02</wgt>
<wgt id='8526'>0.22326E+02</wgt>
<wgt id='8527'>0.22362E+02</wgt>
<wgt id='8528'>0.22292E+02</wgt>
<wgt id='8529'>0.22333E+02</wgt>
<wgt id='8530'>0.22343E+02</wgt>
<wgt id='8531'>0.22345E+02</wgt>
<wgt id='8532'>0.22353E+02</wgt>
<wgt id='8533'>0.22308E+02</wgt>
<wgt id='8534'>0.22358E+02</wgt>
<wgt id='8535'>0.22403E+02</wgt>
<wgt id='8536'>0.22335E+02</wgt>
<wgt id='8537'>0.22360E+02</wgt>
<wgt id='8538'>0.22334E+02</wgt>
<wgt id='8539'>0.22357E+02</wgt>
<wgt id='8540'>0.22353E+02</wgt>
<wgt id='8541'>0.22363E+02</wgt>
<wgt id='8542'>0.22368E+02</wgt>
<wgt id='8543'>0.22333E+02</wgt>
<wgt id='8544'>0.22372E+02</wgt>
<wgt id='8545'>0.22369E+02</wgt>
<wgt id='8546'>0.22376E+02</wgt>
<wgt id='8547'>0.22334E+02</wgt>
<wgt id='8548'>0.22331E+02</wgt>
<wgt id='8549'>0.22352E+02</wgt>
<wgt id='8550'>0.22353E+02</wgt>
<wgt id='8551'>0.22331E+02</wgt>
<wgt id='8552'>0.22355E+02</wgt>
<wgt id='8553'>0.22341E+02</wgt>
<wgt id='8554'>0.22342E+02</wgt>
<wgt id='8555'>0.22354E+02</wgt>
<wgt id='8556'>0.22350E+02</wgt>
<wgt id='8557'>0.22347E+02</wgt>
<wgt id='8558'>0.22377E+02</wgt>
<wgt id='8559'>0.22340E+02</wgt>
<wgt id='8560'>0.22326E+02</wgt>
<wgt id='8561'>0.22349E+02</wgt>
<wgt id='8562'>0.22334E+02</wgt>
<wgt id='8563'>0.22353E+02</wgt>
<wgt id='8564'>0.22346E+02</wgt>
<wgt id='8565'>0.22351E+02</wgt>
<wgt id='8566'>0.22347E+02</wgt>
<wgt id='8567'>0.22349E+02</wgt>
<wgt id='8568'>0.22361E+02</wgt>
<wgt id='8569'>0.22358E+02</wgt>
<wgt id='8570'>0.22351E+02</wgt>
<wgt id='8571'>0.22342E+02</wgt>
<wgt id='8572'>0.22345E+02</wgt>
<wgt id='8573'>0.22343E+02</wgt>
<wgt id='8574'>0.22357E+02</wgt>
<wgt id='8575'>0.22349E+02</wgt>
<wgt id='8576'>0.22349E+02</wgt>
<wgt id='8577'>0.22352E+02</wgt>
<wgt id='8578'>0.22354E+02</wgt>
<wgt id='8579'>0.22366E+02</wgt>
<wgt id='8580'>0.22353E+02</wgt>
<wgt id='8581'>0.22357E+02</wgt>
<wgt id='8582'>0.22337E+02</wgt>
<wgt id='8583'>0.22361E+02</wgt>
<wgt id='8584'>0.22357E+02</wgt>
<wgt id='8585'>0.22357E+02</wgt>
<wgt id='8586'>0.22362E+02</wgt>
<wgt id='8587'>0.22348E+02</wgt>
<wgt id='8588'>0.22346E+02</wgt>
<wgt id='8589'>0.22353E+02</wgt>
<wgt id='8590'>0.22350E+02</wgt>
<wgt id='8591'>0.22349E+02</wgt>
<wgt id='8592'>0.22352E+02</wgt>
<wgt id='8593'>0.22344E+02</wgt>
<wgt id='8594'>0.22355E+02</wgt>
<wgt id='8595'>0.22355E+02</wgt>
<wgt id='8596'>0.22347E+02</wgt>
<wgt id='8597'>0.22355E+02</wgt>
<wgt id='8598'>0.22357E+02</wgt>
<wgt id='8599'>0.22355E+02</wgt>
<wgt id='8600'>0.22352E+02</wgt>
<wgt id='8601'>0.21843E+02</wgt>
<wgt id='8602'>0.22818E+02</wgt>
<wgt id='9000'>0.21176E+02</wgt>
<wgt id='9001'>0.21196E+02</wgt>
<wgt id='9002'>0.21260E+02</wgt>
<wgt id='9003'>0.21039E+02</wgt>
<wgt id='9004'>0.21148E+02</wgt>
<wgt id='9005'>0.21233E+02</wgt>
<wgt id='9006'>0.21151E+02</wgt>
<wgt id='9007'>0.21216E+02</wgt>
<wgt id='9008'>0.21218E+02</wgt>
<wgt id='9009'>0.21158E+02</wgt>
<wgt id='9010'>0.21120E+02</wgt>
<wgt id='9011'>0.21384E+02</wgt>
<wgt id='9012'>0.21004E+02</wgt>
<wgt id='9013'>0.20919E+02</wgt>
<wgt id='9014'>0.21011E+02</wgt>
<wgt id='9015'>0.21177E+02</wgt>
<wgt id='9016'>0.21343E+02</wgt>
<wgt id='9017'>0.21151E+02</wgt>
<wgt id='9018'>0.21138E+02</wgt>
<wgt id='9019'>0.21142E+02</wgt>
<wgt id='9020'>0.21272E+02</wgt>
<wgt id='9021'>0.21141E+02</wgt>
<wgt id='9022'>0.21207E+02</wgt>
<wgt id='9023'>0.21131E+02</wgt>
<wgt id='9024'>0.21150E+02</wgt>
<wgt id='9025'>0.21204E+02</wgt>
<wgt id='9026'>0.21177E+02</wgt>
<wgt id='9027'>0.21140E+02</wgt>
<wgt id='9028'>0.21195E+02</wgt>
<wgt id='9029'>0.21202E+02</wgt>
<wgt id='9030'>0.21179E+02</wgt>
<wgt id='9031'>0.21166E+02</wgt>
<wgt id='9032'>0.21197E+02</wgt>
<wgt id='9033'>0.21204E+02</wgt>
<wgt id='9034'>0.21168E+02</wgt>
<wgt id='9035'>0.21211E+02</wgt>
<wgt id='9036'>0.21178E+02</wgt>
<wgt id='9037'>0.21196E+02</wgt>
<wgt id='9038'>0.21181E+02</wgt>
<wgt id='9039'>0.21181E+02</wgt>
<wgt id='9040'>0.21155E+02</wgt>
<wgt id='9041'>0.21169E+02</wgt>
<wgt id='9042'>0.21174E+02</wgt>
<wgt id='9043'>0.21159E+02</wgt>
<wgt id='9044'>0.21183E+02</wgt>
<wgt id='9045'>0.21175E+02</wgt>
<wgt id='9046'>0.21148E+02</wgt>
<wgt id='9047'>0.21169E+02</wgt>
<wgt id='9048'>0.21183E+02</wgt>
<wgt id='9049'>0.21164E+02</wgt>
<wgt id='9050'>0.21180E+02</wgt>
<wgt id='9051'>0.21186E+02</wgt>
<wgt id='9052'>0.21183E+02</wgt>
<wgt id='9053'>0.21179E+02</wgt>
<wgt id='9054'>0.21166E+02</wgt>
<wgt id='9055'>0.21171E+02</wgt>
<wgt id='9056'>0.21196E+02</wgt>
<wgt id='9057'>0.21175E+02</wgt>
<wgt id='9058'>0.21160E+02</wgt>
<wgt id='9059'>0.21167E+02</wgt>
<wgt id='9060'>0.21168E+02</wgt>
<wgt id='9061'>0.21179E+02</wgt>
<wgt id='9062'>0.21180E+02</wgt>
<wgt id='9063'>0.21186E+02</wgt>
<wgt id='9064'>0.21171E+02</wgt>
<wgt id='9065'>0.21176E+02</wgt>
<wgt id='9066'>0.21179E+02</wgt>
<wgt id='9067'>0.21184E+02</wgt>
<wgt id='9068'>0.21183E+02</wgt>
<wgt id='9069'>0.21189E+02</wgt>
<wgt id='9070'>0.21174E+02</wgt>
<wgt id='9071'>0.21189E+02</wgt>
<wgt id='9072'>0.21190E+02</wgt>
<wgt id='9073'>0.21171E+02</wgt>
<wgt id='9074'>0.21179E+02</wgt>
<wgt id='9075'>0.21175E+02</wgt>
<wgt id='9076'>0.21174E+02</wgt>
<wgt id='9077'>0.21180E+02</wgt>
<wgt id='9078'>0.21178E+02</wgt>
<wgt id='9079'>0.21173E+02</wgt>
<wgt id='9080'>0.21192E+02</wgt>
<wgt id='9081'>0.21174E+02</wgt>
<wgt id='9082'>0.21181E+02</wgt>
<wgt id='9083'>0.21169E+02</wgt>
<wgt id='9084'>0.21170E+02</wgt>
<wgt id='9085'>0.21171E+02</wgt>
<wgt id='9086'>0.21179E+02</wgt>
<wgt id='9087'>0.21163E+02</wgt>
<wgt id='9088'>0.21172E+02</wgt>
<wgt id='9089'>0.21172E+02</wgt>
<wgt id='9090'>0.21180E+02</wgt>
<wgt id='9091'>0.21174E+02</wgt>
<wgt id='9092'>0.21176E+02</wgt>
<wgt id='9093'>0.21173E+02</wgt>
<wgt id='9094'>0.21175E+02</wgt>
<wgt id='9095'>0.21179E+02</wgt>
<wgt id='9096'>0.21172E+02</wgt>
<wgt id='9097'>0.21178E+02</wgt>
<wgt id='9098'>0.21176E+02</wgt>
<wgt id='9099'>0.21172E+02</wgt>
<wgt id='9100'>0.21176E+02</wgt>
<wgt id='9101'>0.20773E+02</wgt>
<wgt id='9102'>0.21546E+02</wgt>
<wgt id='10000'>0.22349E+02</wgt>
<wgt id='10001'>0.22436E+02</wgt>
<wgt id='10002'>0.22297E+02</wgt>
<wgt id='10003'>0.22346E+02</wgt>
<wgt id='10004'>0.22332E+02</wgt>
<wgt id='10005'>0.22837E+02</wgt>
<wgt id='10006'>0.22323E+02</wgt>
<wgt id='10007'>0.22340E+02</wgt>
<wgt id='10008'>0.22372E+02</wgt>
<wgt id='10009'>0.22307E+02</wgt>
<wgt id='10010'>0.22368E+02</wgt>
<wgt id='10011'>0.22326E+02</wgt>
<wgt id='10012'>0.22315E+02</wgt>
<wgt id='10013'>0.22347E+02</wgt>
<wgt id='10014'>0.22343E+02</wgt>
<wgt id='10015'>0.22371E+02</wgt>
<wgt id='10016'>0.22338E+02</wgt>
<wgt id='10017'>0.22224E+02</wgt>
<wgt id='10018'>0.22370E+02</wgt>
<wgt id='10019'>0.22322E+02</wgt>
<wgt id='10020'>0.22337E+02</wgt>
<wgt id='10021'>0.22344E+02</wgt>
<wgt id='10022'>0.22337E+02</wgt>
<wgt id='10023'>0.22352E+02</wgt>
<wgt id='10024'>0.22336E+02</wgt>
<wgt id='10025'>0.22336E+02</wgt>
<wgt id='10026'>0.22376E+02</wgt>
<wgt id='10027'>0.22373E+02</wgt>
<wgt id='10028'>0.22465E+02</wgt>
<wgt id='10029'>0.22376E+02</wgt>
<wgt id='10030'>0.22343E+02</wgt>
<wgt id='10031'>0.21843E+02</wgt>
<wgt id='10032'>0.22818E+02</wgt>
<wgt id='11000'>0.21174E+02</wgt>
<wgt id='11001'>0.21101E+02</wgt>
<wgt id='11002'>0.21245E+02</wgt>
<wgt id='11003'>0.21150E+02</wgt>
<wgt id='11004'>0.21243E+02</wgt>
<wgt id='11005'>0.20939E+02</wgt>
<wgt id='11006'>0.21178E+02</wgt>
<wgt id='11007'>0.21127E+02</wgt>
<wgt id='11008'>0.21123E+02</wgt>
<wgt id='11009'>0.21092E+02</wgt>
<wgt id='11010'>0.21273E+02</wgt>
<wgt id='11011'>0.21084E+02</wgt>
<wgt id='11012'>0.21192E+02</wgt>
<wgt id='11013'>0.21237E+02</wgt>
<wgt id='11014'>0.21125E+02</wgt>
<wgt id='11015'>0.21154E+02</wgt>
<wgt id='11016'>0.21153E+02</wgt>
<wgt id='11017'>0.21320E+02</wgt>
<wgt id='11018'>0.21167E+02</wgt>
<wgt id='11019'>0.21165E+02</wgt>
<wgt id='11020'>0.21215E+02</wgt>
<wgt id='11021'>0.21223E+02</wgt>
<wgt id='11022'>0.21525E+02</wgt>
<wgt id='11023'>0.21175E+02</wgt>
<wgt id='11024'>0.21177E+02</wgt>
<wgt id='11025'>0.21151E+02</wgt>
<wgt id='11026'>0.21178E+02</wgt>
<wgt id='11027'>0.21168E+02</wgt>
<wgt id='11028'>0.21180E+02</wgt>
<wgt id='11029'>0.21179E+02</wgt>
<wgt id='11030'>0.21174E+02</wgt>
<wgt id='11031'>0.20773E+02</wgt>
<wgt id='11032'>0.21546E+02</wgt>
<wgt id='12000'>0.23504E+02</wgt>
<wgt id='12001'>0.23473E+02</wgt>
<wgt id='12002'>0.23534E+02</wgt>
<wgt id='12003'>0.23562E+02</wgt>
<wgt id='12004'>0.23446E+02</wgt>
<wgt id='12005'>0.23539E+02</wgt>
<wgt id='12006'>0.23469E+02</wgt>
<wgt id='12007'>0.23564E+02</wgt>
<wgt id='12008'>0.23446E+02</wgt>
<wgt id='12009'>0.23534E+02</wgt>
<wgt id='12010'>0.23475E+02</wgt>
<wgt id='12011'>0.23442E+02</wgt>
<wgt id='12012'>0.23567E+02</wgt>
<wgt id='12013'>0.23419E+02</wgt>
<wgt id='12014'>0.23589E+02</wgt>
<wgt id='12015'>0.23511E+02</wgt>
<wgt id='12016'>0.23481E+02</wgt>
<wgt id='12017'>0.23581E+02</wgt>
<wgt id='12018'>0.23419E+02</wgt>
<wgt id='12019'>0.23440E+02</wgt>
<wgt id='12020'>0.23565E+02</wgt>
<wgt id='12021'>0.23584E+02</wgt>
<wgt id='12022'>0.23398E+02</wgt>
<wgt id='12023'>0.23391E+02</wgt>
<wgt id='12024'>0.23505E+02</wgt>
<wgt id='12025'>0.23540E+02</wgt>
<wgt id='12026'>0.23499E+02</wgt>
<wgt id='12027'>0.23532E+02</wgt>
<wgt id='12028'>0.23497E+02</wgt>
<wgt id='12050'>0.23504E+02</wgt>
<wgt id='12051'>0.23497E+02</wgt>
<wgt id='12052'>0.23498E+02</wgt>
<wgt id='12053'>0.23492E+02</wgt>
<wgt id='12054'>0.23500E+02</wgt>
<wgt id='12055'>0.23582E+02</wgt>
<wgt id='12056'>0.23393E+02</wgt>
<wgt id='12057'>0.23423E+02</wgt>
<wgt id='12058'>0.23581E+02</wgt>
<wgt id='12059'>0.23465E+02</wgt>
<wgt id='12060'>0.23550E+02</wgt>
<wgt id='12061'>0.23490E+02</wgt>
<wgt id='12062'>0.23542E+02</wgt>
<wgt id='12063'>0.23297E+02</wgt>
<wgt id='13000'>0.21463E+02</wgt>
<wgt id='13001'>0.21447E+02</wgt>
<wgt id='13002'>0.21476E+02</wgt>
<wgt id='13003'>0.21493E+02</wgt>
<wgt id='13004'>0.21430E+02</wgt>
<wgt id='13005'>0.21511E+02</wgt>
<wgt id='13006'>0.21412E+02</wgt>
<wgt id='13007'>0.21549E+02</wgt>
<wgt id='13008'>0.21376E+02</wgt>
<wgt id='13009'>0.21453E+02</wgt>
<wgt id='13010'>0.21471E+02</wgt>
<wgt id='13011'>0.21517E+02</wgt>
<wgt id='13012'>0.21406E+02</wgt>
<wgt id='13013'>0.21403E+02</wgt>
<wgt id='13014'>0.21519E+02</wgt>
<wgt id='13015'>0.21439E+02</wgt>
<wgt id='13016'>0.21478E+02</wgt>
<wgt id='13017'>0.21448E+02</wgt>
<wgt id='13018'>0.21470E+02</wgt>
<wgt id='13019'>0.21429E+02</wgt>
<wgt id='13020'>0.21492E+02</wgt>
<wgt id='13021'>0.21322E+02</wgt>
<wgt id='13022'>0.21572E+02</wgt>
<wgt id='13023'>0.21447E+02</wgt>
<wgt id='13024'>0.21474E+02</wgt>
<wgt id='13025'>0.21374E+02</wgt>
<wgt id='13026'>0.21498E+02</wgt>
<wgt id='13027'>0.21452E+02</wgt>
<wgt id='13028'>0.21494E+02</wgt>
<wgt id='13050'>0.21463E+02</wgt>
<wgt id='13051'>0.21472E+02</wgt>
<wgt id='13052'>0.21401E+02</wgt>
<wgt id='13053'>0.21465E+02</wgt>
<wgt id='13054'>0.21451E+02</wgt>
<wgt id='13055'>0.21383E+02</wgt>
<wgt id='13056'>0.21473E+02</wgt>
<wgt id='13057'>0.21394E+02</wgt>
<wgt id='13058'>0.21569E+02</wgt>
<wgt id='13059'>0.21403E+02</wgt>
<wgt id='13060'>0.21434E+02</wgt>
<wgt id='13061'>0.21401E+02</wgt>
<wgt id='13062'>0.21626E+02</wgt>
<wgt id='13063'>0.21372E+02</wgt>
<wgt id='14000'>0.22113E+02</wgt>
<wgt id='14001'>0.22110E+02</wgt>
<wgt id='14002'>0.22106E+02</wgt>
<wgt id='14003'>0.22103E+02</wgt>
<wgt id='14004'>0.22099E+02</wgt>
<wgt id='14005'>0.22096E+02</wgt>
<wgt id='14006'>0.22092E+02</wgt>
<wgt id='14007'>0.22089E+02</wgt>
<wgt id='14008'>0.22086E+02</wgt>
<wgt id='14009'>0.22082E+02</wgt>
<wgt id='14010'>0.22079E+02</wgt>
<wgt id='14011'>0.22075E+02</wgt>
<wgt id='14012'>0.22072E+02</wgt>
<wgt id='14013'>0.22068E+02</wgt>
<wgt id='14014'>0.22065E+02</wgt>
<wgt id='14015'>0.22061E+02</wgt>
<wgt id='14016'>0.22058E+02</wgt>
<wgt id='14017'>0.22054E+02</wgt>
<wgt id='14018'>0.22051E+02</wgt>
<wgt id='14019'>0.22048E+02</wgt>
<wgt id='14020'>0.22044E+02</wgt>
<wgt id='14021'>0.22041E+02</wgt>
<wgt id='14022'>0.22037E+02</wgt>
<wgt id='14023'>0.22034E+02</wgt>
<wgt id='14024'>0.22030E+02</wgt>
<wgt id='14025'>0.22027E+02</wgt>
<wgt id='14026'>0.22023E+02</wgt>
<wgt id='14027'>0.22020E+02</wgt>
<wgt id='14028'>0.22017E+02</wgt>
<wgt id='14029'>0.22013E+02</wgt>
<wgt id='14030'>0.22010E+02</wgt>
<wgt id='15000'>0.20916E+02</wgt>
<wgt id='15001'>0.20932E+02</wgt>
<wgt id='15002'>0.20997E+02</wgt>
<wgt id='15003'>0.20781E+02</wgt>
<wgt id='15004'>0.20888E+02</wgt>
<wgt id='15005'>0.20973E+02</wgt>
<wgt id='15006'>0.20895E+02</wgt>
<wgt id='15007'>0.20959E+02</wgt>
<wgt id='15008'>0.20958E+02</wgt>
<wgt id='15009'>0.20899E+02</wgt>
<wgt id='15010'>0.20860E+02</wgt>
<wgt id='15011'>0.21125E+02</wgt>
<wgt id='15012'>0.20748E+02</wgt>
<wgt id='15013'>0.20664E+02</wgt>
<wgt id='15014'>0.20752E+02</wgt>
<wgt id='15015'>0.20911E+02</wgt>
<wgt id='15016'>0.21085E+02</wgt>
<wgt id='15017'>0.20889E+02</wgt>
<wgt id='15018'>0.20878E+02</wgt>
<wgt id='15019'>0.20885E+02</wgt>
<wgt id='15020'>0.21014E+02</wgt>
<wgt id='15021'>0.20879E+02</wgt>
<wgt id='15022'>0.20947E+02</wgt>
<wgt id='15023'>0.20872E+02</wgt>
<wgt id='15024'>0.20888E+02</wgt>
<wgt id='15025'>0.20942E+02</wgt>
<wgt id='15026'>0.20915E+02</wgt>
<wgt id='15027'>0.20883E+02</wgt>
<wgt id='15028'>0.20937E+02</wgt>
<wgt id='15029'>0.20940E+02</wgt>
<wgt id='15030'>0.20918E+02</wgt>
<wgt id='15031'>0.20909E+02</wgt>
<wgt id='15032'>0.20935E+02</wgt>
<wgt id='15033'>0.20943E+02</wgt>
<wgt id='15034'>0.20908E+02</wgt>
<wgt id='15035'>0.20950E+02</wgt>
<wgt id='15036'>0.20918E+02</wgt>
<wgt id='15037'>0.20936E+02</wgt>
<wgt id='15038'>0.20920E+02</wgt>
<wgt id='15039'>0.20920E+02</wgt>
<wgt id='15040'>0.20895E+02</wgt>
<wgt id='15041'>0.20908E+02</wgt>
<wgt id='15042'>0.20914E+02</wgt>
<wgt id='15043'>0.20901E+02</wgt>
<wgt id='15044'>0.20923E+02</wgt>
<wgt id='15045'>0.20915E+02</wgt>
<wgt id='15046'>0.20890E+02</wgt>
<wgt id='15047'>0.20909E+02</wgt>
<wgt id='15048'>0.20923E+02</wgt>
<wgt id='15049'>0.20904E+02</wgt>
<wgt id='15050'>0.20921E+02</wgt>
<wgt id='15051'>0.20926E+02</wgt>
<wgt id='15052'>0.20923E+02</wgt>
<wgt id='15053'>0.20919E+02</wgt>
<wgt id='15054'>0.20907E+02</wgt>
<wgt id='15055'>0.20911E+02</wgt>
<wgt id='15056'>0.20934E+02</wgt>
<wgt id='15057'>0.20915E+02</wgt>
<wgt id='15058'>0.20901E+02</wgt>
<wgt id='15059'>0.20907E+02</wgt>
<wgt id='15060'>0.20909E+02</wgt>
<wgt id='15061'>0.20919E+02</wgt>
<wgt id='15062'>0.20919E+02</wgt>
<wgt id='15063'>0.20926E+02</wgt>
<wgt id='15064'>0.20911E+02</wgt>
<wgt id='15065'>0.20916E+02</wgt>
<wgt id='15066'>0.20919E+02</wgt>
<wgt id='15067'>0.20923E+02</wgt>
<wgt id='15068'>0.20923E+02</wgt>
<wgt id='15069'>0.20928E+02</wgt>
<wgt id='15070'>0.20914E+02</wgt>
<wgt id='15071'>0.20929E+02</wgt>
<wgt id='15072'>0.20930E+02</wgt>
<wgt id='15073'>0.20911E+02</wgt>
<wgt id='15074'>0.20919E+02</wgt>
<wgt id='15075'>0.20915E+02</wgt>
<wgt id='15076'>0.20915E+02</wgt>
<wgt id='15077'>0.20920E+02</wgt>
<wgt id='15078'>0.20918E+02</wgt>
<wgt id='15079'>0.20913E+02</wgt>
<wgt id='15080'>0.20931E+02</wgt>
<wgt id='15081'>0.20914E+02</wgt>
<wgt id='15082'>0.20922E+02</wgt>
<wgt id='15083'>0.20909E+02</wgt>
<wgt id='15084'>0.20910E+02</wgt>
<wgt id='15085'>0.20911E+02</wgt>
<wgt id='15086'>0.20920E+02</wgt>
<wgt id='15087'>0.20903E+02</wgt>
<wgt id='15088'>0.20912E+02</wgt>
<wgt id='15089'>0.20911E+02</wgt>
<wgt id='15090'>0.20920E+02</wgt>
<wgt id='15091'>0.20914E+02</wgt>
<wgt id='15092'>0.20916E+02</wgt>
<wgt id='15093'>0.20913E+02</wgt>
<wgt id='15094'>0.20915E+02</wgt>
<wgt id='15095'>0.20919E+02</wgt>
<wgt id='15096'>0.20912E+02</wgt>
<wgt id='15097'>0.20918E+02</wgt>
<wgt id='15098'>0.20916E+02</wgt>
<wgt id='15099'>0.20912E+02</wgt>
<wgt id='15100'>0.20916E+02</wgt>
<wgt id='15101'>0.20916E+02</wgt>
<wgt id='15102'>0.20915E+02</wgt>
<wgt id='15103'>0.20917E+02</wgt>
<wgt id='15104'>0.20917E+02</wgt>
<wgt id='15105'>0.20917E+02</wgt>
<wgt id='15106'>0.20917E+02</wgt>
<wgt id='15107'>0.20915E+02</wgt>
<wgt id='1500'>0.22322E+02</wgt>
<wgt id='1501'>0.20561E+02</wgt>
<wgt id='1502'>0.22235E+02</wgt>
<wgt id='1503'>0.22343E+02</wgt>
<wgt id='1504'>0.22039E+02</wgt>
<wgt id='1505'>0.19890E+02</wgt>
<wgt id='1506'>0.22634E+02</wgt>
<wgt id='1507'>0.22518E+02</wgt>
<wgt id='1508'>0.22523E+02</wgt>
<wgt id='1509'>0.22458E+02</wgt>
<wgt id='1510'>0.21665E+02</wgt>
<wgt id='1511'>0.21836E+02</wgt>
<wgt id='1512'>0.22704E+02</wgt>
<wgt id='1513'>0.22733E+02</wgt>
<wgt id='1514'>0.21928E+02</wgt>
<wgt id='1515'>0.22683E+02</wgt>
<wgt id='1516'>0.22539E+02</wgt>
<wgt id='1517'>0.22123E+02</wgt>
<wgt id='1518'>0.22148E+02</wgt>
<wgt id='1519'>0.22639E+02</wgt>
<wgt id='1520'>0.22719E+02</wgt>
<wgt id='1521'>0.22491E+02</wgt>
<wgt id='1522'>0.22144E+02</wgt>
<wgt id='1523'>0.23954E+02</wgt>
<wgt id='1524'>0.22258E+02</wgt>
<wgt id='1525'>0.22487E+02</wgt>
<wgt id='1526'>0.22097E+02</wgt>
<wgt id='1527'>0.22073E+02</wgt>
<wgt id='1528'>0.22142E+02</wgt>
<wgt id='1529'>0.22242E+02</wgt>
<wgt id='1530'>0.22812E+02</wgt>
<wgt id='1531'>0.22276E+02</wgt>
<wgt id='1532'>0.21801E+02</wgt>
<wgt id='1533'>0.22326E+02</wgt>
<wgt id='1534'>0.22446E+02</wgt>
<wgt id='1535'>0.22897E+02</wgt>
<wgt id='1536'>0.22655E+02</wgt>
<wgt id='1537'>0.22712E+02</wgt>
<wgt id='1538'>0.22587E+02</wgt>
<wgt id='1539'>0.21697E+02</wgt>
<wgt id='1540'>0.22568E+02</wgt>
<wgt id='1541'>0.22365E+02</wgt>
<wgt id='1542'>0.22368E+02</wgt>
<wgt id='1543'>0.22492E+02</wgt>
<wgt id='1544'>0.22208E+02</wgt>
<wgt id='1545'>0.22334E+02</wgt>
<wgt id='1546'>0.22635E+02</wgt>
<wgt id='1547'>0.22023E+02</wgt>
<wgt id='1548'>0.22068E+02</wgt>
<wgt id='1549'>0.22162E+02</wgt>
<wgt id='1550'>0.22276E+02</wgt>
<wgt id='1551'>0.22292E+02</wgt>
<wgt id='1552'>0.22099E+02</wgt>
<wgt id='1553'>0.22627E+02</wgt>
<wgt id='1554'>0.22443E+02</wgt>
<wgt id='1555'>0.22187E+02</wgt>
<wgt id='1556'>0.21889E+02</wgt>
<wgt id='1557'>0.22831E+02</wgt>
<wgt id='1558'>0.22086E+02</wgt>
<wgt id='1559'>0.22622E+02</wgt>
<wgt id='1560'>0.22247E+02</wgt>
<wgt id='1561'>0.22362E+02</wgt>
<wgt id='1562'>0.22356E+02</wgt>
<wgt id='1563'>0.22596E+02</wgt>
<wgt id='1564'>0.21890E+02</wgt>
<wgt id='1565'>0.22519E+02</wgt>
<wgt id='1566'>0.22481E+02</wgt>
<wgt id='1567'>0.23638E+02</wgt>
<wgt id='1568'>0.22017E+02</wgt>
<wgt id='1569'>0.21774E+02</wgt>
<wgt id='1570'>0.22232E+02</wgt>
<wgt id='1571'>0.22537E+02</wgt>
<wgt id='1572'>0.22429E+02</wgt>
<wgt id='1573'>0.20971E+02</wgt>
<wgt id='1574'>0.22578E+02</wgt>
<wgt id='1575'>0.22129E+02</wgt>
<wgt id='1576'>0.21940E+02</wgt>
<wgt id='1577'>0.22564E+02</wgt>
<wgt id='1578'>0.23041E+02</wgt>
<wgt id='1579'>0.22141E+02</wgt>
<wgt id='1580'>0.22382E+02</wgt>
<wgt id='1581'>0.22492E+02</wgt>
<wgt id='1582'>0.22072E+02</wgt>
<wgt id='1583'>0.22627E+02</wgt>
<wgt id='1584'>0.22299E+02</wgt>
<wgt id='1585'>0.21819E+02</wgt>
<wgt id='1586'>0.22219E+02</wgt>
<wgt id='1587'>0.22320E+02</wgt>
<wgt id='1588'>0.22293E+02</wgt>
<wgt id='1589'>0.22928E+02</wgt>
<wgt id='1590'>0.22201E+02</wgt>
<wgt id='1591'>0.22017E+02</wgt>
<wgt id='1592'>0.22534E+02</wgt>
<wgt id='1593'>0.22209E+02</wgt>
<wgt id='1594'>0.22795E+02</wgt>
<wgt id='1595'>0.21952E+02</wgt>
<wgt id='1596'>0.22662E+02</wgt>
<wgt id='1597'>0.22291E+02</wgt>
<wgt id='1598'>0.22998E+02</wgt>
<wgt id='1599'>0.22784E+02</wgt>
<wgt id='1600'>0.22452E+02</wgt>
<wgt id='1601'>0.21932E+02</wgt>
<wgt id='1602'>0.22576E+02</wgt>
<wgt id='1700'>0.21378E+02</wgt>
<wgt id='1800'>0.25825E+02</wgt>
<wgt id='1850'>0.31940E+02</wgt>
<wgt id='1900'>0.26307E+02</wgt>
<wgt id='1950'>0.31370E+02</wgt>
</rwgt>
</event>
<event>
      4   9999  2.16956E+01  4.28604E+01 -1.00000E+00  1.40878E-01
       4    -1     0     0   502     0  0.000000000E+00  0.000000000E+00  3.040846068E+01  3.040846068E+01  0.000000000E+00  0.00000E+00  9.000E+00
      21    -1     0     0   501   502  0.000000000E+00  0.000000000E+00 -5.447804116E+02  5.447804116E+02  0.000000000E+00  0.00000E+00  9.000E+00
      25     1     1     2     0     0  3.162400824E+00  4.274353141E+01 -5.156466588E+02  5.323095633E+02  1.249999366E+02  0.00000E+00  9.000E+00
       4     1     1     2   501     0 -3.162400824E+00 -4.274353141E+01  1.274707939E+00  4.287930896E+01  1.554441826E-06  0.00000E+00  9.000E+00
#rwgt            1           1   18.884048546490764                1        3189           0
<rwgt>
<wgt id='1001'>0.21696E+02</wgt>
<wgt id='1002'>0.23981E+02</wgt>
<wgt id='1003'>0.19246E+02</wgt>
<wgt id='1004'>0.18196E+02</wgt>
<wgt id='1005'>0.19973E+02</wgt>
<wgt id='1006'>0.16264E+02</wgt>
<wgt id='1007'>0.26343E+02</wgt>
<wgt id='1008'>0.29371E+02</wgt>
<wgt id='1009'>0.23146E+02</wgt>
<wgt id='2000'>0.21696E+02</wgt>
<wgt id='2001'>0.21676E+02</wgt>
<wgt id='2002'>0.21698E+02</wgt>
<wgt id='2003'>0.21666E+02</wgt>
<wgt id='2004'>0.21719E+02</wgt>
<wgt id='2005'>0.21727E+02</wgt>
<wgt id='2006'>0.21700E+02</wgt>
<wgt id='2007'>0.21765E+02</wgt>
<wgt id='2008'>0.21768E+02</wgt>
<wgt id='2009'>0.21661E+02</wgt>
<wgt id='2010'>0.21655E+02</wgt>
<wgt id='2011'>0.21693E+02</wgt>
<wgt id='2012'>0.21689E+02</wgt>
<wgt id='2013'>0.21634E+02</wgt>
<wgt id='2014'>0.21662E+02</wgt>
<wgt id='2015'>0.21688E+02</wgt>
<wgt id='2016'>0.21724E+02</wgt>
<wgt id='2017'>0.21683E+02</wgt>
<wgt id='2018'>0.21660E+02</wgt>
<wgt id='2019'>0.21705E+02</wgt>
<wgt id='2020'>0.21676E+02</wgt>
<wgt id='2021'>0.21710E+02</wgt>
<wgt id='2022'>0.21670E+02</wgt>
<wgt id='2023'>0.21712E+02</wgt>
<wgt id='2024'>0.21657E+02</wgt>
<wgt id='2025'>0.21691E+02</wgt>
<wgt id='2026'>0.21737E+02</wgt>
<wgt id='2027'>0.21666E+02</wgt>
<wgt id='2028'>0.21656E+02</wgt>
<wgt id='2029'>0.21799E+02</wgt>
<wgt id='2030'>0.21695E+02</wgt>
<wgt id='2031'>0.21719E+02</wgt>
<wgt id='2032'>0.21674E+02</wgt>
<wgt id='2033'>0.21699E+02</wgt>
<wgt id='2034'>0.21764E+02</wgt>
<wgt id='2035'>0.21686E+02</wgt>
<wgt id='2036'>0.21698E+02</wgt>
<wgt id='2037'>0.21742E+02</wgt>
<wgt id='2038'>0.21680E+02</wgt>
<wgt id='2039'>0.21636E+02</wgt>
<wgt id='2040'>0.21681E+02</wgt>
<wgt id='2041'>0.21688E+02</wgt>
<wgt id='2042'>0.21691E+02</wgt>
<wgt id='2043'>0.21678E+02</wgt>
<wgt id='2044'>0.21721E+02</wgt>
<wgt id='2045'>0.21679E+02</wgt>
<wgt id='2046'>0.21724E+02</wgt>
<wgt id='2047'>0.21721E+02</wgt>
<wgt id='2048'>0.21673E+02</wgt>
<wgt id='2049'>0.21684E+02</wgt>
<wgt id='2050'>0.21706E+02</wgt>
<wgt id='2051'>0.21726E+02</wgt>
<wgt id='2052'>0.21701E+02</wgt>
<wgt id='2053'>0.21710E+02</wgt>
<wgt id='2054'>0.21708E+02</wgt>
<wgt id='2055'>0.21692E+02</wgt>
<wgt id='2056'>0.21696E+02</wgt>
<wgt id='2057'>0.21712E+02</wgt>
<wgt id='2058'>0.21698E+02</wgt>
<wgt id='2059'>0.21687E+02</wgt>
<wgt id='2060'>0.21692E+02</wgt>
<wgt id='2061'>0.21689E+02</wgt>
<wgt id='2062'>0.21706E+02</wgt>
<wgt id='2063'>0.21692E+02</wgt>
<wgt id='2064'>0.21693E+02</wgt>
<wgt id='2065'>0.21713E+02</wgt>
<wgt id='2066'>0.21695E+02</wgt>
<wgt id='2067'>0.21698E+02</wgt>
<wgt id='2068'>0.21701E+02</wgt>
<wgt id='2069'>0.21694E+02</wgt>
<wgt id='2070'>0.21687E+02</wgt>
<wgt id='2071'>0.21685E+02</wgt>
<wgt id='2072'>0.21697E+02</wgt>
<wgt id='2073'>0.21697E+02</wgt>
<wgt id='2074'>0.21686E+02</wgt>
<wgt id='2075'>0.21698E+02</wgt>
<wgt id='2076'>0.21691E+02</wgt>
<wgt id='2077'>0.21695E+02</wgt>
<wgt id='2078'>0.21695E+02</wgt>
<wgt id='2079'>0.21699E+02</wgt>
<wgt id='2080'>0.21696E+02</wgt>
<wgt id='2081'>0.21697E+02</wgt>
<wgt id='2082'>0.21697E+02</wgt>
<wgt id='2083'>0.21700E+02</wgt>
<wgt id='2084'>0.21697E+02</wgt>
<wgt id='2085'>0.21696E+02</wgt>
<wgt id='2086'>0.21693E+02</wgt>
<wgt id='2087'>0.21694E+02</wgt>
<wgt id='2088'>0.21699E+02</wgt>
<wgt id='2089'>0.21693E+02</wgt>
<wgt id='2090'>0.21697E+02</wgt>
<wgt id='2091'>0.21696E+02</wgt>
<wgt id='2092'>0.21699E+02</wgt>
<wgt id='2093'>0.21695E+02</wgt>
<wgt id='2094'>0.21699E+02</wgt>
<wgt id='2095'>0.21697E+02</wgt>
<wgt id='2096'>0.21693E+02</wgt>
<wgt id='2097'>0.21700E+02</wgt>
<wgt id='2098'>0.21692E+02</wgt>
<wgt id='2099'>0.21697E+02</wgt>
<wgt id='2100'>0.21695E+02</wgt>
<wgt id='2101'>0.21049E+02</wgt>
<wgt id='2102'>0.22376E+02</wgt>
<wgt id='2104'>0.18547E+02</wgt>
<wgt id='2105'>0.19169E+02</wgt>
<wgt id='2106'>0.19720E+02</wgt>
<wgt id='2107'>0.20305E+02</wgt>
<wgt id='2108'>0.21352E+02</wgt>
<wgt id='2109'>0.22012E+02</wgt>
<wgt id='2110'>0.23017E+02</wgt>
<wgt id='2111'>0.23675E+02</wgt>
<wgt id='3000'>0.22817E+02</wgt>
<wgt id='3001'>0.22827E+02</wgt>
<wgt id='3002'>0.22801E+02</wgt>
<wgt id='3003'>0.22774E+02</wgt>
<wgt id='3004'>0.22844E+02</wgt>
<wgt id='3005'>0.22750E+02</wgt>
<wgt id='3006'>0.22786E+02</wgt>
<wgt id='3007'>0.22735E+02</wgt>
<wgt id='3008'>0.22825E+02</wgt>
<wgt id='3009'>0.22728E+02</wgt>
<wgt id='3010'>0.22810E+02</wgt>
<wgt id='3011'>0.22827E+02</wgt>
<wgt id='3012'>0.22806E+02</wgt>
<wgt id='3013'>0.22847E+02</wgt>
<wgt id='3014'>0.22776E+02</wgt>
<wgt id='3015'>0.22799E+02</wgt>
<wgt id='3016'>0.22815E+02</wgt>
<wgt id='3017'>0.22776E+02</wgt>
<wgt id='3018'>0.22823E+02</wgt>
<wgt id='3019'>0.22874E+02</wgt>
<wgt id='3020'>0.22844E+02</wgt>
<wgt id='3021'>0.22849E+02</wgt>
<wgt id='3022'>0.22819E+02</wgt>
<wgt id='3023'>0.22825E+02</wgt>
<wgt id='3024'>0.22821E+02</wgt>
<wgt id='3025'>0.22845E+02</wgt>
<wgt id='3026'>0.22801E+02</wgt>
<wgt id='3027'>0.22825E+02</wgt>
<wgt id='3028'>0.22788E+02</wgt>
<wgt id='3029'>0.22756E+02</wgt>
<wgt id='3030'>0.22931E+02</wgt>
<wgt id='3031'>0.22876E+02</wgt>
<wgt id='3032'>0.22832E+02</wgt>
<wgt id='3033'>0.22875E+02</wgt>
<wgt id='3034'>0.22822E+02</wgt>
<wgt id='3035'>0.22926E+02</wgt>
<wgt id='3036'>0.22843E+02</wgt>
<wgt id='3037'>0.22796E+02</wgt>
<wgt id='3038'>0.22823E+02</wgt>
<wgt id='3039'>0.22820E+02</wgt>
<wgt id='3040'>0.22779E+02</wgt>
<wgt id='3041'>0.22831E+02</wgt>
<wgt id='3042'>0.22801E+02</wgt>
<wgt id='3043'>0.22789E+02</wgt>
<wgt id='3044'>0.22828E+02</wgt>
<wgt id='3045'>0.22833E+02</wgt>
<wgt id='3046'>0.22844E+02</wgt>
<wgt id='3047'>0.22822E+02</wgt>
<wgt id='3048'>0.22811E+02</wgt>
<wgt id='3049'>0.22810E+02</wgt>
<wgt id='3050'>0.22797E+02</wgt>
<wgt id='3051'>0.22841E+02</wgt>
<wgt id='3052'>0.22802E+02</wgt>
<wgt id='3053'>0.22817E+02</wgt>
<wgt id='3054'>0.22824E+02</wgt>
<wgt id='3055'>0.22788E+02</wgt>
<wgt id='3056'>0.22823E+02</wgt>
<wgt id='3057'>0.22822E+02</wgt>
<wgt id='3058'>0.22797E+02</wgt>
<wgt id='3059'>0.22825E+02</wgt>
<wgt id='3060'>0.22828E+02</wgt>
<wgt id='3061'>0.22833E+02</wgt>
<wgt id='3062'>0.22826E+02</wgt>
<wgt id='3063'>0.22824E+02</wgt>
<wgt id='3064'>0.22809E+02</wgt>
<wgt id='3065'>0.22814E+02</wgt>
<wgt id='3066'>0.22824E+02</wgt>
<wgt id='3067'>0.22799E+02</wgt>
<wgt id='3068'>0.22825E+02</wgt>
<wgt id='3069'>0.22810E+02</wgt>
<wgt id='3070'>0.22816E+02</wgt>
<wgt id='3071'>0.22811E+02</wgt>
<wgt id='3072'>0.22820E+02</wgt>
<wgt id='3073'>0.22809E+02</wgt>
<wgt id='3074'>0.22820E+02</wgt>
<wgt id='3075'>0.22818E+02</wgt>
<wgt id='3076'>0.22813E+02</wgt>
<wgt id='3077'>0.22817E+02</wgt>
<wgt id='3078'>0.22822E+02</wgt>
<wgt id='3079'>0.22816E+02</wgt>
<wgt id='3080'>0.22816E+02</wgt>
<wgt id='3081'>0.22818E+02</wgt>
<wgt id='3082'>0.22817E+02</wgt>
<wgt id='3083'>0.22814E+02</wgt>
<wgt id='3084'>0.22812E+02</wgt>
<wgt id='3085'>0.22820E+02</wgt>
<wgt id='3086'>0.22813E+02</wgt>
<wgt id='3087'>0.22814E+02</wgt>
<wgt id='3088'>0.22815E+02</wgt>
<wgt id='3089'>0.22817E+02</wgt>
<wgt id='3090'>0.22819E+02</wgt>
<wgt id='3091'>0.22819E+02</wgt>
<wgt id='3092'>0.22816E+02</wgt>
<wgt id='3093'>0.22817E+02</wgt>
<wgt id='3094'>0.22820E+02</wgt>
<wgt id='3095'>0.22817E+02</wgt>
<wgt id='3096'>0.22815E+02</wgt>
<wgt id='3097'>0.22814E+02</wgt>
<wgt id='3098'>0.22815E+02</wgt>
<wgt id='3099'>0.22819E+02</wgt>
<wgt id='3100'>0.22818E+02</wgt>
<wgt id='3101'>0.22078E+02</wgt>
<wgt id='3102'>0.23533E+02</wgt>
<wgt id='5000'>0.21306E+02</wgt>
<wgt id='5001'>0.21306E+02</wgt>
<wgt id='5002'>0.21264E+02</wgt>
<wgt id='5003'>0.21323E+02</wgt>
<wgt id='5004'>0.21251E+02</wgt>
<wgt id='5005'>0.21353E+02</wgt>
<wgt id='5006'>0.21008E+02</wgt>
<wgt id='5007'>0.21139E+02</wgt>
<wgt id='5008'>0.21419E+02</wgt>
<wgt id='5009'>0.21256E+02</wgt>
<wgt id='5010'>0.21317E+02</wgt>
<wgt id='5011'>0.21376E+02</wgt>
<wgt id='5012'>0.21210E+02</wgt>
<wgt id='5013'>0.21347E+02</wgt>
<wgt id='5014'>0.21307E+02</wgt>
<wgt id='5015'>0.21330E+02</wgt>
<wgt id='5016'>0.21192E+02</wgt>
<wgt id='5017'>0.21210E+02</wgt>
<wgt id='5018'>0.21412E+02</wgt>
<wgt id='5019'>0.21228E+02</wgt>
<wgt id='5020'>0.21389E+02</wgt>
<wgt id='5021'>0.21300E+02</wgt>
<wgt id='5022'>0.21309E+02</wgt>
<wgt id='5023'>0.21185E+02</wgt>
<wgt id='5024'>0.21437E+02</wgt>
<wgt id='5025'>0.21317E+02</wgt>
<wgt id='5026'>0.21297E+02</wgt>
<wgt id='5027'>0.21420E+02</wgt>
<wgt id='5028'>0.21109E+02</wgt>
<wgt id='5029'>0.21133E+02</wgt>
<wgt id='5030'>0.21406E+02</wgt>
<wgt id='5031'>0.21187E+02</wgt>
<wgt id='5032'>0.21474E+02</wgt>
<wgt id='5033'>0.21213E+02</wgt>
<wgt id='5034'>0.21390E+02</wgt>
<wgt id='5035'>0.21149E+02</wgt>
<wgt id='5036'>0.21443E+02</wgt>
<wgt id='5037'>0.21086E+02</wgt>
<wgt id='5038'>0.21555E+02</wgt>
<wgt id='5039'>0.21650E+02</wgt>
<wgt id='5040'>0.21135E+02</wgt>
<wgt id='5041'>0.21294E+02</wgt>
<wgt id='5042'>0.21292E+02</wgt>
<wgt id='5043'>0.21410E+02</wgt>
<wgt id='5044'>0.21101E+02</wgt>
<wgt id='5045'>0.21188E+02</wgt>
<wgt id='5046'>0.21328E+02</wgt>
<wgt id='5047'>0.21069E+02</wgt>
<wgt id='5048'>0.21555E+02</wgt>
<wgt id='5049'>0.21287E+02</wgt>
<wgt id='5050'>0.21358E+02</wgt>
<wgt id='5051'>0.21326E+02</wgt>
<wgt id='5052'>0.21295E+02</wgt>
<wgt id='5053'>0.20650E+02</wgt>
<wgt id='5054'>0.20881E+02</wgt>
<wgt id='5055'>0.21177E+02</wgt>
<wgt id='5056'>0.21534E+02</wgt>
<wgt id='5060'>0.20567E+02</wgt>
<wgt id='5070'>0.22067E+02</wgt>
<wgt id='4000'>0.22383E+02</wgt>
<wgt id='4001'>0.22373E+02</wgt>
<wgt id='4002'>0.22423E+02</wgt>
<wgt id='4003'>0.22069E+02</wgt>
<wgt id='4004'>0.22499E+02</wgt>
<wgt id='4005'>0.22460E+02</wgt>
<wgt id='4006'>0.22337E+02</wgt>
<wgt id='4007'>0.22256E+02</wgt>
<wgt id='4008'>0.22495E+02</wgt>
<wgt id='4009'>0.22248E+02</wgt>
<wgt id='4010'>0.22456E+02</wgt>
<wgt id='4011'>0.22545E+02</wgt>
<wgt id='4012'>0.22276E+02</wgt>
<wgt id='4013'>0.21987E+02</wgt>
<wgt id='4014'>0.22620E+02</wgt>
<wgt id='4015'>0.22679E+02</wgt>
<wgt id='4016'>0.22198E+02</wgt>
<wgt id='4017'>0.22088E+02</wgt>
<wgt id='4018'>0.22734E+02</wgt>
<wgt id='4019'>0.22494E+02</wgt>
<wgt id='4020'>0.22251E+02</wgt>
<wgt id='4021'>0.22385E+02</wgt>
<wgt id='4022'>0.22367E+02</wgt>
<wgt id='4023'>0.22393E+02</wgt>
<wgt id='4024'>0.22362E+02</wgt>
<wgt id='4025'>0.22398E+02</wgt>
<wgt id='4026'>0.22364E+02</wgt>
<wgt id='4027'>0.22389E+02</wgt>
<wgt id='4028'>0.22371E+02</wgt>
<wgt id='4029'>0.22343E+02</wgt>
<wgt id='4030'>0.22397E+02</wgt>
<wgt id='4031'>0.22412E+02</wgt>
<wgt id='4032'>0.22345E+02</wgt>
<wgt id='4033'>0.22349E+02</wgt>
<wgt id='4034'>0.22461E+02</wgt>
<wgt id='4035'>0.22372E+02</wgt>
<wgt id='4036'>0.22396E+02</wgt>
<wgt id='4037'>0.22377E+02</wgt>
<wgt id='4038'>0.22360E+02</wgt>
<wgt id='4039'>0.22303E+02</wgt>
<wgt id='4040'>0.22434E+02</wgt>
<wgt id='4041'>0.22390E+02</wgt>
<wgt id='4042'>0.22382E+02</wgt>
<wgt id='4043'>0.22215E+02</wgt>
<wgt id='4044'>0.22579E+02</wgt>
<wgt id='4045'>0.22310E+02</wgt>
<wgt id='4046'>0.22395E+02</wgt>
<wgt id='4047'>0.22423E+02</wgt>
<wgt id='4048'>0.22150E+02</wgt>
<wgt id='4049'>0.22130E+02</wgt>
<wgt id='4050'>0.22493E+02</wgt>
<wgt id='4051'>0.22362E+02</wgt>
<wgt id='4052'>0.22376E+02</wgt>
<wgt id='4053'>0.21664E+02</wgt>
<wgt id='4054'>0.22294E+02</wgt>
<wgt id='4055'>0.22318E+02</wgt>
<wgt id='4056'>0.22539E+02</wgt>
<wgt id='4060'>0.21576E+02</wgt>
<wgt id='4070'>0.23212E+02</wgt>
<wgt id='4080'>0.24475E+02</wgt>
<wgt id='6000'>0.22600E+02</wgt>
<wgt id='6001'>0.22633E+02</wgt>
<wgt id='6002'>0.22565E+02</wgt>
<wgt id='6003'>0.22613E+02</wgt>
<wgt id='6004'>0.22592E+02</wgt>
<wgt id='6005'>0.22627E+02</wgt>
<wgt id='6006'>0.22577E+02</wgt>
<wgt id='6007'>0.22538E+02</wgt>
<wgt id='6008'>0.22672E+02</wgt>
<wgt id='6009'>0.22698E+02</wgt>
<wgt id='6010'>0.22506E+02</wgt>
<wgt id='6011'>0.22651E+02</wgt>
<wgt id='6012'>0.22493E+02</wgt>
<wgt id='6013'>0.22574E+02</wgt>
<wgt id='6014'>0.22649E+02</wgt>
<wgt id='6015'>0.22548E+02</wgt>
<wgt id='6016'>0.22630E+02</wgt>
<wgt id='6017'>0.22465E+02</wgt>
<wgt id='6018'>0.22762E+02</wgt>
<wgt id='6019'>0.22596E+02</wgt>
<wgt id='6020'>0.22604E+02</wgt>
<wgt id='6021'>0.22556E+02</wgt>
<wgt id='6022'>0.22663E+02</wgt>
<wgt id='6023'>0.22448E+02</wgt>
<wgt id='6024'>0.22709E+02</wgt>
<wgt id='6025'>0.22667E+02</wgt>
<wgt id='6026'>0.22452E+02</wgt>
<wgt id='6027'>0.22659E+02</wgt>
<wgt id='6028'>0.22601E+02</wgt>
<wgt id='6029'>0.22609E+02</wgt>
<wgt id='6030'>0.22589E+02</wgt>
<wgt id='6031'>0.22513E+02</wgt>
<wgt id='6032'>0.22688E+02</wgt>
<wgt id='6033'>0.22666E+02</wgt>
<wgt id='6034'>0.22535E+02</wgt>
<wgt id='6035'>0.22622E+02</wgt>
<wgt id='6036'>0.22589E+02</wgt>
<wgt id='6037'>0.22638E+02</wgt>
<wgt id='6038'>0.22600E+02</wgt>
<wgt id='6039'>0.22555E+02</wgt>
<wgt id='6040'>0.22651E+02</wgt>
<wgt id='6041'>0.22536E+02</wgt>
<wgt id='6042'>0.22678E+02</wgt>
<wgt id='6043'>0.22890E+02</wgt>
<wgt id='6044'>0.22504E+02</wgt>
<wgt id='6045'>0.22580E+02</wgt>
<wgt id='6046'>0.22655E+02</wgt>
<wgt id='6047'>0.22745E+02</wgt>
<wgt id='6048'>0.22427E+02</wgt>
<wgt id='6049'>0.22659E+02</wgt>
<wgt id='6050'>0.22571E+02</wgt>
<wgt id='7000'>0.21224E+02</wgt>
<wgt id='7001'>0.21247E+02</wgt>
<wgt id='7002'>0.21194E+02</wgt>
<wgt id='7003'>0.21276E+02</wgt>
<wgt id='7004'>0.21172E+02</wgt>
<wgt id='7005'>0.21255E+02</wgt>
<wgt id='7006'>0.21211E+02</wgt>
<wgt id='7007'>0.21155E+02</wgt>
<wgt id='7008'>0.21294E+02</wgt>
<wgt id='7009'>0.21268E+02</wgt>
<wgt id='7010'>0.21179E+02</wgt>
<wgt id='7011'>0.21012E+02</wgt>
<wgt id='7012'>0.21315E+02</wgt>
<wgt id='7013'>0.21221E+02</wgt>
<wgt id='7014'>0.21228E+02</wgt>
<wgt id='7015'>0.21161E+02</wgt>
<wgt id='7016'>0.21291E+02</wgt>
<wgt id='7017'>0.21061E+02</wgt>
<wgt id='7018'>0.21311E+02</wgt>
<wgt id='7019'>0.21206E+02</wgt>
<wgt id='7020'>0.21250E+02</wgt>
<wgt id='7021'>0.21223E+02</wgt>
<wgt id='7022'>0.21223E+02</wgt>
<wgt id='7023'>0.21298E+02</wgt>
<wgt id='7024'>0.21135E+02</wgt>
<wgt id='7025'>0.21268E+02</wgt>
<wgt id='7026'>0.21114E+02</wgt>
<wgt id='7027'>0.21284E+02</wgt>
<wgt id='7028'>0.21216E+02</wgt>
<wgt id='7029'>0.21228E+02</wgt>
<wgt id='7030'>0.21189E+02</wgt>
<wgt id='7031'>0.21182E+02</wgt>
<wgt id='7032'>0.21311E+02</wgt>
<wgt id='7033'>0.21232E+02</wgt>
<wgt id='7034'>0.21226E+02</wgt>
<wgt id='7035'>0.21187E+02</wgt>
<wgt id='7036'>0.21253E+02</wgt>
<wgt id='7037'>0.21226E+02</wgt>
<wgt id='7038'>0.21244E+02</wgt>
<wgt id='7039'>0.21168E+02</wgt>
<wgt id='7040'>0.21263E+02</wgt>
<wgt id='7041'>0.21217E+02</wgt>
<wgt id='7042'>0.21236E+02</wgt>
<wgt id='7043'>0.21237E+02</wgt>
<wgt id='7044'>0.21140E+02</wgt>
<wgt id='7045'>0.21063E+02</wgt>
<wgt id='7046'>0.21364E+02</wgt>
<wgt id='7047'>0.21302E+02</wgt>
<wgt id='7048'>0.21195E+02</wgt>
<wgt id='7049'>0.21182E+02</wgt>
<wgt id='7050'>0.21288E+02</wgt>
<wgt id='7060'>0.35385E+02</wgt>
<wgt id='8000'>0.21529E+02</wgt>
<wgt id='8001'>0.21524E+02</wgt>
<wgt id='8002'>0.21535E+02</wgt>
<wgt id='8003'>0.21530E+02</wgt>
<wgt id='8004'>0.21529E+02</wgt>
<wgt id='8005'>0.21480E+02</wgt>
<wgt id='8006'>0.21528E+02</wgt>
<wgt id='8007'>0.21520E+02</wgt>
<wgt id='8008'>0.21569E+02</wgt>
<wgt id='8009'>0.21611E+02</wgt>
<wgt id='8010'>0.21525E+02</wgt>
<wgt id='8011'>0.21524E+02</wgt>
<wgt id='8012'>0.21492E+02</wgt>
<wgt id='8013'>0.21511E+02</wgt>
<wgt id='8014'>0.21540E+02</wgt>
<wgt id='8015'>0.21511E+02</wgt>
<wgt id='8016'>0.21546E+02</wgt>
<wgt id='8017'>0.21540E+02</wgt>
<wgt id='8018'>0.21556E+02</wgt>
<wgt id='8019'>0.21535E+02</wgt>
<wgt id='8020'>0.21514E+02</wgt>
<wgt id='8021'>0.21518E+02</wgt>
<wgt id='8022'>0.21503E+02</wgt>
<wgt id='8023'>0.21514E+02</wgt>
<wgt id='8024'>0.21501E+02</wgt>
<wgt id='8025'>0.21534E+02</wgt>
<wgt id='8026'>0.21556E+02</wgt>
<wgt id='8027'>0.21521E+02</wgt>
<wgt id='8028'>0.21548E+02</wgt>
<wgt id='8029'>0.21486E+02</wgt>
<wgt id='8500'>0.22677E+02</wgt>
<wgt id='8501'>0.22553E+02</wgt>
<wgt id='8502'>0.22666E+02</wgt>
<wgt id='8503'>0.22722E+02</wgt>
<wgt id='8504'>0.22630E+02</wgt>
<wgt id='8505'>0.22733E+02</wgt>
<wgt id='8506'>0.22684E+02</wgt>
<wgt id='8507'>0.22711E+02</wgt>
<wgt id='8508'>0.22609E+02</wgt>
<wgt id='8509'>0.22737E+02</wgt>
<wgt id='8510'>0.22848E+02</wgt>
<wgt id='8511'>0.22669E+02</wgt>
<wgt id='8512'>0.22663E+02</wgt>
<wgt id='8513'>0.22662E+02</wgt>
<wgt id='8514'>0.22482E+02</wgt>
<wgt id='8515'>0.22783E+02</wgt>
<wgt id='8516'>0.22663E+02</wgt>
<wgt id='8517'>0.22599E+02</wgt>
<wgt id='8518'>0.22551E+02</wgt>
<wgt id='8519'>0.22523E+02</wgt>
<wgt id='8520'>0.22650E+02</wgt>
<wgt id='8521'>0.22584E+02</wgt>
<wgt id='8522'>0.22731E+02</wgt>
<wgt id='8523'>0.22595E+02</wgt>
<wgt id='8524'>0.22702E+02</wgt>
<wgt id='8525'>0.22671E+02</wgt>
<wgt id='8526'>0.22623E+02</wgt>
<wgt id='8527'>0.22675E+02</wgt>
<wgt id='8528'>0.22618E+02</wgt>
<wgt id='8529'>0.22659E+02</wgt>
<wgt id='8530'>0.22685E+02</wgt>
<wgt id='8531'>0.22670E+02</wgt>
<wgt id='8532'>0.22678E+02</wgt>
<wgt id='8533'>0.22621E+02</wgt>
<wgt id='8534'>0.22677E+02</wgt>
<wgt id='8535'>0.22732E+02</wgt>
<wgt id='8536'>0.22655E+02</wgt>
<wgt id='8537'>0.22681E+02</wgt>
<wgt id='8538'>0.22660E+02</wgt>
<wgt id='8539'>0.22682E+02</wgt>
<wgt id='8540'>0.22677E+02</wgt>
<wgt id='8541'>0.22690E+02</wgt>
<wgt id='8542'>0.22687E+02</wgt>
<wgt id='8543'>0.22659E+02</wgt>
<wgt id='8544'>0.22696E+02</wgt>
<wgt id='8545'>0.22693E+02</wgt>
<wgt id='8546'>0.22706E+02</wgt>
<wgt id='8547'>0.22655E+02</wgt>
<wgt id='8548'>0.22657E+02</wgt>
<wgt id='8549'>0.22682E+02</wgt>
<wgt id='8550'>0.22674E+02</wgt>
<wgt id='8551'>0.22663E+02</wgt>
<wgt id='8552'>0.22674E+02</wgt>
<wgt id='8553'>0.22660E+02</wgt>
<wgt id='8554'>0.22669E+02</wgt>
<wgt id='8555'>0.22677E+02</wgt>
<wgt id='8556'>0.22672E+02</wgt>
<wgt id='8557'>0.22676E+02</wgt>
<wgt id='8558'>0.22702E+02</wgt>
<wgt id='8559'>0.22667E+02</wgt>
<wgt id='8560'>0.22650E+02</wgt>
<wgt id='8561'>0.22678E+02</wgt>
<wgt id='8562'>0.22659E+02</wgt>
<wgt id='8563'>0.22678E+02</wgt>
<wgt id='8564'>0.22669E+02</wgt>
<wgt id='8565'>0.22679E+02</wgt>
<wgt id='8566'>0.22675E+02</wgt>
<wgt id='8567'>0.22674E+02</wgt>
<wgt id='8568'>0.22688E+02</wgt>
<wgt id='8569'>0.22685E+02</wgt>
<wgt id='8570'>0.22677E+02</wgt>
<wgt id='8571'>0.22662E+02</wgt>
<wgt id='8572'>0.22665E+02</wgt>
<wgt id='8573'>0.22666E+02</wgt>
<wgt id='8574'>0.22680E+02</wgt>
<wgt id='8575'>0.22673E+02</wgt>
<wgt id='8576'>0.22673E+02</wgt>
<wgt id='8577'>0.22673E+02</wgt>
<wgt id='8578'>0.22678E+02</wgt>
<wgt id='8579'>0.22691E+02</wgt>
<wgt id='8580'>0.22675E+02</wgt>
<wgt id='8581'>0.22684E+02</wgt>
<wgt id='8582'>0.22660E+02</wgt>
<wgt id='8583'>0.22687E+02</wgt>
<wgt id='8584'>0.22685E+02</wgt>
<wgt id='8585'>0.22684E+02</wgt>
<wgt id='8586'>0.22691E+02</wgt>
<wgt id='8587'>0.22675E+02</wgt>
<wgt id='8588'>0.22672E+02</wgt>
<wgt id='8589'>0.22677E+02</wgt>
<wgt id='8590'>0.22676E+02</wgt>
<wgt id='8591'>0.22673E+02</wgt>
<wgt id='8592'>0.22676E+02</wgt>
<wgt id='8593'>0.22668E+02</wgt>
<wgt id='8594'>0.22679E+02</wgt>
<wgt id='8595'>0.22679E+02</wgt>
<wgt id='8596'>0.22671E+02</wgt>
<wgt id='8597'>0.22680E+02</wgt>
<wgt id='8598'>0.22683E+02</wgt>
<wgt id='8599'>0.22680E+02</wgt>
<wgt id='8600'>0.22677E+02</wgt>
<wgt id='8601'>0.22146E+02</wgt>
<wgt id='8602'>0.23205E+02</wgt>
<wgt id='9000'>0.21429E+02</wgt>
<wgt id='9001'>0.21450E+02</wgt>
<wgt id='9002'>0.21436E+02</wgt>
<wgt id='9003'>0.21404E+02</wgt>
<wgt id='9004'>0.21455E+02</wgt>
<wgt id='9005'>0.21423E+02</wgt>
<wgt id='9006'>0.21511E+02</wgt>
<wgt id='9007'>0.21549E+02</wgt>
<wgt id='9008'>0.21482E+02</wgt>
<wgt id='9009'>0.21413E+02</wgt>
<wgt id='9010'>0.21384E+02</wgt>
<wgt id='9011'>0.21534E+02</wgt>
<wgt id='9012'>0.21390E+02</wgt>
<wgt id='9013'>0.21365E+02</wgt>
<wgt id='9014'>0.21427E+02</wgt>
<wgt id='9015'>0.21393E+02</wgt>
<wgt id='9016'>0.21564E+02</wgt>
<wgt id='9017'>0.21309E+02</wgt>
<wgt id='9018'>0.21435E+02</wgt>
<wgt id='9019'>0.21453E+02</wgt>
<wgt id='9020'>0.21598E+02</wgt>
<wgt id='9021'>0.21427E+02</wgt>
<wgt id='9022'>0.21469E+02</wgt>
<wgt id='9023'>0.21319E+02</wgt>
<wgt id='9024'>0.21363E+02</wgt>
<wgt id='9025'>0.21487E+02</wgt>
<wgt id='9026'>0.21427E+02</wgt>
<wgt id='9027'>0.21412E+02</wgt>
<wgt id='9028'>0.21457E+02</wgt>
<wgt id='9029'>0.21447E+02</wgt>
<wgt id='9030'>0.21447E+02</wgt>
<wgt id='9031'>0.21415E+02</wgt>
<wgt id='9032'>0.21446E+02</wgt>
<wgt id='9033'>0.21458E+02</wgt>
<wgt id='9034'>0.21430E+02</wgt>
<wgt id='9035'>0.21462E+02</wgt>
<wgt id='9036'>0.21437E+02</wgt>
<wgt id='9037'>0.21449E+02</wgt>
<wgt id='9038'>0.21440E+02</wgt>
<wgt id='9039'>0.21436E+02</wgt>
<wgt id='9040'>0.21405E+02</wgt>
<wgt id='9041'>0.21426E+02</wgt>
<wgt id='9042'>0.21435E+02</wgt>
<wgt id='9043'>0.21406E+02</wgt>
<wgt id='9044'>0.21434E+02</wgt>
<wgt id='9045'>0.21435E+02</wgt>
<wgt id='9046'>0.21401E+02</wgt>
<wgt id='9047'>0.21430E+02</wgt>
<wgt id='9048'>0.21439E+02</wgt>
<wgt id='9049'>0.21418E+02</wgt>
<wgt id='9050'>0.21430E+02</wgt>
<wgt id='9051'>0.21442E+02</wgt>
<wgt id='9052'>0.21442E+02</wgt>
<wgt id='9053'>0.21431E+02</wgt>
<wgt id='9054'>0.21418E+02</wgt>
<wgt id='9055'>0.21418E+02</wgt>
<wgt id='9056'>0.21445E+02</wgt>
<wgt id='9057'>0.21429E+02</wgt>
<wgt id='9058'>0.21410E+02</wgt>
<wgt id='9059'>0.21418E+02</wgt>
<wgt id='9060'>0.21421E+02</wgt>
<wgt id='9061'>0.21430E+02</wgt>
<wgt id='9062'>0.21432E+02</wgt>
<wgt id='9063'>0.21437E+02</wgt>
<wgt id='9064'>0.21428E+02</wgt>
<wgt id='9065'>0.21427E+02</wgt>
<wgt id='9066'>0.21429E+02</wgt>
<wgt id='9067'>0.21437E+02</wgt>
<wgt id='9068'>0.21432E+02</wgt>
<wgt id='9069'>0.21445E+02</wgt>
<wgt id='9070'>0.21425E+02</wgt>
<wgt id='9071'>0.21443E+02</wgt>
<wgt id='9072'>0.21444E+02</wgt>
<wgt id='9073'>0.21424E+02</wgt>
<wgt id='9074'>0.21432E+02</wgt>
<wgt id='9075'>0.21426E+02</wgt>
<wgt id='9076'>0.21427E+02</wgt>
<wgt id='9077'>0.21434E+02</wgt>
<wgt id='9078'>0.21431E+02</wgt>
<wgt id='9079'>0.21427E+02</wgt>
<wgt id='9080'>0.21447E+02</wgt>
<wgt id='9081'>0.21428E+02</wgt>
<wgt id='9082'>0.21435E+02</wgt>
<wgt id='9083'>0.21423E+02</wgt>
<wgt id='9084'>0.21422E+02</wgt>
<wgt id='9085'>0.21421E+02</wgt>
<wgt id='9086'>0.21432E+02</wgt>
<wgt id='9087'>0.21413E+02</wgt>
<wgt id='9088'>0.21423E+02</wgt>
<wgt id='9089'>0.21423E+02</wgt>
<wgt id='9090'>0.21433E+02</wgt>
<wgt id='9091'>0.21427E+02</wgt>
<wgt id='9092'>0.21429E+02</wgt>
<wgt id='9093'>0.21424E+02</wgt>
<wgt id='9094'>0.21427E+02</wgt>
<wgt id='9095'>0.21431E+02</wgt>
<wgt id='9096'>0.21425E+02</wgt>
<wgt id='9097'>0.21431E+02</wgt>
<wgt id='9098'>0.21429E+02</wgt>
<wgt id='9099'>0.21424E+02</wgt>
<wgt id='9100'>0.21429E+02</wgt>
<wgt id='9101'>0.20986E+02</wgt>
<wgt id='9102'>0.21905E+02</wgt>
<wgt id='10000'>0.22657E+02</wgt>
<wgt id='10001'>0.22712E+02</wgt>
<wgt id='10002'>0.22511E+02</wgt>
<wgt id='10003'>0.22645E+02</wgt>
<wgt id='10004'>0.22516E+02</wgt>
<wgt id='10005'>0.22764E+02</wgt>
<wgt id='10006'>0.22573E+02</wgt>
<wgt id='10007'>0.22651E+02</wgt>
<wgt id='10008'>0.22693E+02</wgt>
<wgt id='10009'>0.22596E+02</wgt>
<wgt id='10010'>0.22694E+02</wgt>
<wgt id='10011'>0.22603E+02</wgt>
<wgt id='10012'>0.22595E+02</wgt>
<wgt id='10013'>0.22663E+02</wgt>
<wgt id='10014'>0.22645E+02</wgt>
<wgt id='10015'>0.22688E+02</wgt>
<wgt id='10016'>0.22613E+02</wgt>
<wgt id='10017'>0.22535E+02</wgt>
<wgt id='10018'>0.22706E+02</wgt>
<wgt id='10019'>0.22582E+02</wgt>
<wgt id='10020'>0.22603E+02</wgt>
<wgt id='10021'>0.22635E+02</wgt>
<wgt id='10022'>0.22625E+02</wgt>
<wgt id='10023'>0.22670E+02</wgt>
<wgt id='10024'>0.22632E+02</wgt>
<wgt id='10025'>0.22643E+02</wgt>
<wgt id='10026'>0.22743E+02</wgt>
<wgt id='10027'>0.22710E+02</wgt>
<wgt id='10028'>0.22938E+02</wgt>
<wgt id='10029'>0.22679E+02</wgt>
<wgt id='10030'>0.22646E+02</wgt>
<wgt id='10031'>0.22146E+02</wgt>
<wgt id='10032'>0.23205E+02</wgt>
<wgt id='11000'>0.21411E+02</wgt>
<wgt id='11001'>0.21144E+02</wgt>
<wgt id='11002'>0.21413E+02</wgt>
<wgt id='11003'>0.21395E+02</wgt>
<wgt id='11004'>0.21389E+02</wgt>
<wgt id='11005'>0.21339E+02</wgt>
<wgt id='11006'>0.21417E+02</wgt>
<wgt id='11007'>0.21390E+02</wgt>
<wgt id='11008'>0.21372E+02</wgt>
<wgt id='11009'>0.21382E+02</wgt>
<wgt id='11010'>0.21617E+02</wgt>
<wgt id='11011'>0.21378E+02</wgt>
<wgt id='11012'>0.21408E+02</wgt>
<wgt id='11013'>0.21438E+02</wgt>
<wgt id='11014'>0.21394E+02</wgt>
<wgt id='11015'>0.21396E+02</wgt>
<wgt id='11016'>0.21412E+02</wgt>
<wgt id='11017'>0.21463E+02</wgt>
<wgt id='11018'>0.21408E+02</wgt>
<wgt id='11019'>0.21413E+02</wgt>
<wgt id='11020'>0.21428E+02</wgt>
<wgt id='11021'>0.21429E+02</wgt>
<wgt id='11022'>0.21515E+02</wgt>
<wgt id='11023'>0.21414E+02</wgt>
<wgt id='11024'>0.21416E+02</wgt>
<wgt id='11025'>0.21397E+02</wgt>
<wgt id='11026'>0.21414E+02</wgt>
<wgt id='11027'>0.21417E+02</wgt>
<wgt id='11028'>0.21419E+02</wgt>
<wgt id='11029'>0.21390E+02</wgt>
<wgt id='11030'>0.21409E+02</wgt>
<wgt id='11031'>0.20986E+02</wgt>
<wgt id='11032'>0.21905E+02</wgt>
<wgt id='12000'>0.22482E+02</wgt>
<wgt id='12001'>0.22455E+02</wgt>
<wgt id='12002'>0.22509E+02</wgt>
<wgt id='12003'>0.22534E+02</wgt>
<wgt id='12004'>0.22431E+02</wgt>
<wgt id='12005'>0.22505E+02</wgt>
<wgt id='12006'>0.22459E+02</wgt>
<wgt id='12007'>0.22535E+02</wgt>
<wgt id='12008'>0.22430E+02</wgt>
<wgt id='12009'>0.22490E+02</wgt>
<wgt id='12010'>0.22475E+02</wgt>
<wgt id='12011'>0.22370E+02</wgt>
<wgt id='12012'>0.22593E+02</wgt>
<wgt id='12013'>0.22424E+02</wgt>
<wgt id='12014'>0.22540E+02</wgt>
<wgt id='12015'>0.22542E+02</wgt>
<wgt id='12016'>0.22431E+02</wgt>
<wgt id='12017'>0.22557E+02</wgt>
<wgt id='12018'>0.22401E+02</wgt>
<wgt id='12019'>0.22511E+02</wgt>
<wgt id='12020'>0.22454E+02</wgt>
<wgt id='12021'>0.22532E+02</wgt>
<wgt id='12022'>0.22414E+02</wgt>
<wgt id='12023'>0.22300E+02</wgt>
<wgt id='12024'>0.22582E+02</wgt>
<wgt id='12025'>0.22407E+02</wgt>
<wgt id='12026'>0.22583E+02</wgt>
<wgt id='12027'>0.22673E+02</wgt>
<wgt id='12028'>0.22317E+02</wgt>
<wgt id='12050'>0.22482E+02</wgt>
<wgt id='12051'>0.22514E+02</wgt>
<wgt id='12052'>0.22419E+02</wgt>
<wgt id='12053'>0.22510E+02</wgt>
<wgt id='12054'>0.22441E+02</wgt>
<wgt id='12055'>0.22509E+02</wgt>
<wgt id='12056'>0.22598E+02</wgt>
<wgt id='12057'>0.22449E+02</wgt>
<wgt id='12058'>0.22525E+02</wgt>
<wgt id='12059'>0.22511E+02</wgt>
<wgt id='12060'>0.22465E+02</wgt>
<wgt id='12061'>0.22391E+02</wgt>
<wgt id='12062'>0.22530E+02</wgt>
<wgt id='12063'>0.22468E+02</wgt>
<wgt id='13000'>0.21842E+02</wgt>
<wgt id='13001'>0.21826E+02</wgt>
<wgt id='13002'>0.21856E+02</wgt>
<wgt id='13003'>0.21875E+02</wgt>
<wgt id='13004'>0.21807E+02</wgt>
<wgt id='13005'>0.21883E+02</wgt>
<wgt id='13006'>0.21798E+02</wgt>
<wgt id='13007'>0.21923E+02</wgt>
<wgt id='13008'>0.21759E+02</wgt>
<wgt id='13009'>0.21797E+02</wgt>
<wgt id='13010'>0.21885E+02</wgt>
<wgt id='13011'>0.21904E+02</wgt>
<wgt id='13012'>0.21778E+02</wgt>
<wgt id='13013'>0.21798E+02</wgt>
<wgt id='13014'>0.21884E+02</wgt>
<wgt id='13015'>0.21858E+02</wgt>
<wgt id='13016'>0.21835E+02</wgt>
<wgt id='13017'>0.21824E+02</wgt>
<wgt id='13018'>0.21854E+02</wgt>
<wgt id='13019'>0.21839E+02</wgt>
<wgt id='13020'>0.21842E+02</wgt>
<wgt id='13021'>0.21836E+02</wgt>
<wgt id='13022'>0.21822E+02</wgt>
<wgt id='13023'>0.21731E+02</wgt>
<wgt id='13024'>0.21949E+02</wgt>
<wgt id='13025'>0.21631E+02</wgt>
<wgt id='13026'>0.22005E+02</wgt>
<wgt id='13027'>0.21769E+02</wgt>
<wgt id='13028'>0.21936E+02</wgt>
<wgt id='13050'>0.21842E+02</wgt>
<wgt id='13051'>0.21865E+02</wgt>
<wgt id='13052'>0.21728E+02</wgt>
<wgt id='13053'>0.21853E+02</wgt>
<wgt id='13054'>0.21828E+02</wgt>
<wgt id='13055'>0.21524E+02</wgt>
<wgt id='13056'>0.21914E+02</wgt>
<wgt id='13057'>0.21799E+02</wgt>
<wgt id='13058'>0.21929E+02</wgt>
<wgt id='13059'>0.21826E+02</wgt>
<wgt id='13060'>0.21477E+02</wgt>
<wgt id='13061'>0.21799E+02</wgt>
<wgt id='13062'>0.21979E+02</wgt>
<wgt id='13063'>0.21935E+02</wgt>
<wgt id='14000'>0.22305E+02</wgt>
<wgt id='14001'>0.22302E+02</wgt>
<wgt id='14002'>0.22298E+02</wgt>
<wgt id='14003'>0.22295E+02</wgt>
<wgt id='14004'>0.22292E+02</wgt>
<wgt id='14005'>0.22289E+02</wgt>
<wgt id='14006'>0.22286E+02</wgt>
<wgt id='14007'>0.22282E+02</wgt>
<wgt id='14008'>0.22279E+02</wgt>
<wgt id='14009'>0.22276E+02</wgt>
<wgt id='14010'>0.22273E+02</wgt>
<wgt id='14011'>0.22269E+02</wgt>
<wgt id='14012'>0.22266E+02</wgt>
<wgt id='14013'>0.22263E+02</wgt>
<wgt id='14014'>0.22260E+02</wgt>
<wgt id='14015'>0.22256E+02</wgt>
<wgt id='14016'>0.22253E+02</wgt>
<wgt id='14017'>0.22250E+02</wgt>
<wgt id='14018'>0.22247E+02</wgt>
<wgt id='14019'>0.22243E+02</wgt>
<wgt id='14020'>0.22240E+02</wgt>
<wgt id='14021'>0.22237E+02</wgt>
<wgt id='14022'>0.22234E+02</wgt>
<wgt id='14023'>0.22231E+02</wgt>
<wgt id='14024'>0.22227E+02</wgt>
<wgt id='14025'>0.22224E+02</wgt>
<wgt id='14026'>0.22221E+02</wgt>
<wgt id='14027'>0.22218E+02</wgt>
<wgt id='14028'>0.22215E+02</wgt>
<wgt id='14029'>0.22211E+02</wgt>
<wgt id='14030'>0.22208E+02</wgt>
<wgt id='15000'>0.21068E+02</wgt>
<wgt id='15001'>0.21085E+02</wgt>
<wgt id='15002'>0.21072E+02</wgt>
<wgt id='15003'>0.21046E+02</wgt>
<wgt id='15004'>0.21094E+02</wgt>
<wgt id='15005'>0.21062E+02</wgt>
<wgt id='15006'>0.21153E+02</wgt>
<wgt id='15007'>0.21188E+02</wgt>
<wgt id='15008'>0.21120E+02</wgt>
<wgt id='15009'>0.21053E+02</wgt>
<wgt id='15010'>0.21025E+02</wgt>
<wgt id='15011'>0.21172E+02</wgt>
<wgt id='15012'>0.21032E+02</wgt>
<wgt id='15013'>0.21010E+02</wgt>
<wgt id='15014'>0.21066E+02</wgt>
<wgt id='15015'>0.21025E+02</wgt>
<wgt id='15016'>0.21204E+02</wgt>
<wgt id='15017'>0.20946E+02</wgt>
<wgt id='15018'>0.21073E+02</wgt>
<wgt id='15019'>0.21095E+02</wgt>
<wgt id='15020'>0.21238E+02</wgt>
<wgt id='15021'>0.21065E+02</wgt>
<wgt id='15022'>0.21107E+02</wgt>
<wgt id='15023'>0.20958E+02</wgt>
<wgt id='15024'>0.21000E+02</wgt>
<wgt id='15025'>0.21122E+02</wgt>
<wgt id='15026'>0.21063E+02</wgt>
<wgt id='15027'>0.21055E+02</wgt>
<wgt id='15028'>0.21097E+02</wgt>
<wgt id='15029'>0.21084E+02</wgt>
<wgt id='15030'>0.21085E+02</wgt>
<wgt id='15031'>0.21057E+02</wgt>
<wgt id='15032'>0.21084E+02</wgt>
<wgt id='15033'>0.21095E+02</wgt>
<wgt id='15034'>0.21069E+02</wgt>
<wgt id='15035'>0.21100E+02</wgt>
<wgt id='15036'>0.21075E+02</wgt>
<wgt id='15037'>0.21088E+02</wgt>
<wgt id='15038'>0.21079E+02</wgt>
<wgt id='15039'>0.21074E+02</wgt>
<wgt id='15040'>0.21044E+02</wgt>
<wgt id='15041'>0.21064E+02</wgt>
<wgt id='15042'>0.21073E+02</wgt>
<wgt id='15043'>0.21047E+02</wgt>
<wgt id='15044'>0.21073E+02</wgt>
<wgt id='15045'>0.21072E+02</wgt>
<wgt id='15046'>0.21041E+02</wgt>
<wgt id='15047'>0.21067E+02</wgt>
<wgt id='15048'>0.21078E+02</wgt>
<wgt id='15049'>0.21056E+02</wgt>
<wgt id='15050'>0.21069E+02</wgt>
<wgt id='15051'>0.21081E+02</wgt>
<wgt id='15052'>0.21081E+02</wgt>
<wgt id='15053'>0.21070E+02</wgt>
<wgt id='15054'>0.21057E+02</wgt>
<wgt id='15055'>0.21057E+02</wgt>
<wgt id='15056'>0.21082E+02</wgt>
<wgt id='15057'>0.21067E+02</wgt>
<wgt id='15058'>0.21050E+02</wgt>
<wgt id='15059'>0.21057E+02</wgt>
<wgt id='15060'>0.21060E+02</wgt>
<wgt id='15061'>0.21069E+02</wgt>
<wgt id='15062'>0.21071E+02</wgt>
<wgt id='15063'>0.21076E+02</wgt>
<wgt id='15064'>0.21067E+02</wgt>
<wgt id='15065'>0.21066E+02</wgt>
<wgt id='15066'>0.21068E+02</wgt>
<wgt id='15067'>0.21075E+02</wgt>
<wgt id='15068'>0.21071E+02</wgt>
<wgt id='15069'>0.21083E+02</wgt>
<wgt id='15070'>0.21064E+02</wgt>
<wgt id='15071'>0.21082E+02</wgt>
<wgt id='15072'>0.21083E+02</wgt>
<wgt id='15073'>0.21063E+02</wgt>
<wgt id='15074'>0.21071E+02</wgt>
<wgt id='15075'>0.21065E+02</wgt>
<wgt id='15076'>0.21067E+02</wgt>
<wgt id='15077'>0.21073E+02</wgt>
<wgt id='15078'>0.21071E+02</wgt>
<wgt id='15079'>0.21066E+02</wgt>
<wgt id='15080'>0.21085E+02</wgt>
<wgt id='15081'>0.21068E+02</wgt>
<wgt id='15082'>0.21074E+02</wgt>
<wgt id='15083'>0.21062E+02</wgt>
<wgt id='15084'>0.21061E+02</wgt>
<wgt id='15085'>0.21061E+02</wgt>
<wgt id='15086'>0.21072E+02</wgt>
<wgt id='15087'>0.21051E+02</wgt>
<wgt id='15088'>0.21061E+02</wgt>
<wgt id='15089'>0.21062E+02</wgt>
<wgt id='15090'>0.21071E+02</wgt>
<wgt id='15091'>0.21065E+02</wgt>
<wgt id='15092'>0.21067E+02</wgt>
<wgt id='15093'>0.21063E+02</wgt>
<wgt id='15094'>0.21065E+02</wgt>
<wgt id='15095'>0.21070E+02</wgt>
<wgt id='15096'>0.21064E+02</wgt>
<wgt id='15097'>0.21070E+02</wgt>
<wgt id='15098'>0.21068E+02</wgt>
<wgt id='15099'>0.21063E+02</wgt>
<wgt id='15100'>0.21068E+02</wgt>
<wgt id='15101'>0.21068E+02</wgt>
<wgt id='15102'>0.21066E+02</wgt>
<wgt id='15103'>0.21068E+02</wgt>
<wgt id='15104'>0.21068E+02</wgt>
<wgt id='15105'>0.21069E+02</wgt>
<wgt id='15106'>0.21068E+02</wgt>
<wgt id='15107'>0.21067E+02</wgt>
<wgt id='1500'>0.22874E+02</wgt>
<wgt id='1501'>0.21966E+02</wgt>
<wgt id='1502'>0.22884E+02</wgt>
<wgt id='1503'>0.23406E+02</wgt>
<wgt id='1504'>0.22295E+02</wgt>
<wgt id='1505'>0.21942E+02</wgt>
<wgt id='1506'>0.23240E+02</wgt>
<wgt id='1507'>0.22833E+02</wgt>
<wgt id='1508'>0.22838E+02</wgt>
<wgt id='1509'>0.23247E+02</wgt>
<wgt id='1510'>0.22889E+02</wgt>
<wgt id='1511'>0.22461E+02</wgt>
<wgt id='1512'>0.23107E+02</wgt>
<wgt id='1513'>0.22778E+02</wgt>
<wgt id='1514'>0.23180E+02</wgt>
<wgt id='1515'>0.23361E+02</wgt>
<wgt id='1516'>0.23014E+02</wgt>
<wgt id='1517'>0.23067E+02</wgt>
<wgt id='1518'>0.22854E+02</wgt>
<wgt id='1519'>0.22962E+02</wgt>
<wgt id='1520'>0.23486E+02</wgt>
<wgt id='1521'>0.23152E+02</wgt>
<wgt id='1522'>0.22800E+02</wgt>
<wgt id='1523'>0.23924E+02</wgt>
<wgt id='1524'>0.22997E+02</wgt>
<wgt id='1525'>0.22730E+02</wgt>
<wgt id='1526'>0.22759E+02</wgt>
<wgt id='1527'>0.22756E+02</wgt>
<wgt id='1528'>0.22856E+02</wgt>
<wgt id='1529'>0.23270E+02</wgt>
<wgt id='1530'>0.23431E+02</wgt>
<wgt id='1531'>0.22801E+02</wgt>
<wgt id='1532'>0.22549E+02</wgt>
<wgt id='1533'>0.22450E+02</wgt>
<wgt id='1534'>0.22998E+02</wgt>
<wgt id='1535'>0.23409E+02</wgt>
<wgt id='1536'>0.22547E+02</wgt>
<wgt id='1537'>0.23269E+02</wgt>
<wgt id='1538'>0.22546E+02</wgt>
<wgt id='1539'>0.22454E+02</wgt>
<wgt id='1540'>0.22678E+02</wgt>
<wgt id='1541'>0.22781E+02</wgt>
<wgt id='1542'>0.22750E+02</wgt>
<wgt id='1543'>0.22749E+02</wgt>
<wgt id='1544'>0.23057E+02</wgt>
<wgt id='1545'>0.23079E+02</wgt>
<wgt id='1546'>0.23080E+02</wgt>
<wgt id='1547'>0.22624E+02</wgt>
<wgt id='1548'>0.22754E+02</wgt>
<wgt id='1549'>0.22712E+02</wgt>
<wgt id='1550'>0.22673E+02</wgt>
<wgt id='1551'>0.22789E+02</wgt>
<wgt id='1552'>0.22695E+02</wgt>
<wgt id='1553'>0.23235E+02</wgt>
<wgt id='1554'>0.22659E+02</wgt>
<wgt id='1555'>0.22518E+02</wgt>
<wgt id='1556'>0.22900E+02</wgt>
<wgt id='1557'>0.22706E+02</wgt>
<wgt id='1558'>0.22700E+02</wgt>
<wgt id='1559'>0.23520E+02</wgt>
<wgt id='1560'>0.22695E+02</wgt>
<wgt id='1561'>0.22665E+02</wgt>
<wgt id='1562'>0.23212E+02</wgt>
<wgt id='1563'>0.22599E+02</wgt>
<wgt id='1564'>0.22807E+02</wgt>
<wgt id='1565'>0.22732E+02</wgt>
<wgt id='1566'>0.22989E+02</wgt>
<wgt id='1567'>0.24157E+02</wgt>
<wgt id='1568'>0.22805E+02</wgt>
<wgt id='1569'>0.22244E+02</wgt>
<wgt id='1570'>0.22506E+02</wgt>
<wgt id='1571'>0.22559E+02</wgt>
<wgt id='1572'>0.23115E+02</wgt>
<wgt id='1573'>0.21970E+02</wgt>
<wgt id='1574'>0.23398E+02</wgt>
<wgt id='1575'>0.22633E+02</wgt>
<wgt id='1576'>0.22768E+02</wgt>
<wgt id='1577'>0.22906E+02</wgt>
<wgt id='1578'>0.23120E+02</wgt>
<wgt id='1579'>0.22550E+02</wgt>
<wgt id='1580'>0.22704E+02</wgt>
<wgt id='1581'>0.23036E+02</wgt>
<wgt id='1582'>0.22389E+02</wgt>
<wgt id='1583'>0.23398E+02</wgt>
<wgt id='1584'>0.22712E+02</wgt>
<wgt id='1585'>0.22796E+02</wgt>
<wgt id='1586'>0.22774E+02</wgt>
<wgt id='1587'>0.23194E+02</wgt>
<wgt id='1588'>0.22742E+02</wgt>
<wgt id='1589'>0.23399E+02</wgt>
<wgt id='1590'>0.22751E+02</wgt>
<wgt id='1591'>0.22548E+02</wgt>
<wgt id='1592'>0.22545E+02</wgt>
<wgt id='1593'>0.22868E+02</wgt>
<wgt id='1594'>0.23479E+02</wgt>
<wgt id='1595'>0.22889E+02</wgt>
<wgt id='1596'>0.22919E+02</wgt>
<wgt id='1597'>0.22700E+02</wgt>
<wgt id='1598'>0.22845E+02</wgt>
<wgt id='1599'>0.22870E+02</wgt>
<wgt id='1600'>0.23155E+02</wgt>
<wgt id='1601'>0.22461E+02</wgt>
<wgt id='1602'>0.23130E+02</wgt>
<wgt id='1700'>0.21653E+02</wgt>
<wgt id='1800'>0.25956E+02</wgt>
<wgt id='1850'>0.32212E+02</wgt>
<wgt id='1900'>0.27931E+02</wgt>
<wgt id='1950'>0.32408E+02</wgt>
</rwgt>
</event>
<event>
      4   9999  2.16956E+01  4.60027E+01 -1.00000E+00  1.39101E-01
      -4    -1     0     0     0   501  0.000000000E+00  0.000000000E+00  4.076404693E+02  4.076404693E+02  0.000000000E+00  0.00000E+00  9.000E+00
      21    -1     0     0   501   502  0.000000000E+00  0.000000000E+00 -2.260125216E+01  2.260125216E+01  0.000000000E+00  0.00000E+00  9.000E+00
      25     1     1     2     0     0 -2.079355269E+01  4.103502752E+01  2.054097517E+02  2.448152127E+02  1.250003078E+02  0.00000E+00  9.000E+00
      -4     1     1     2     0   502  2.079355269E+01 -4.103502752E+01  1.796294654E+02  1.854265088E+02  3.303624740E-06  0.00000E+00  9.000E+00
#rwgt            2           2   2.7827403658345639E-002           1        3264           0
<rwgt>
<wgt id='1001'>0.21696E+02</wgt>
<wgt id='1002'>0.23607E+02</wgt>
<wgt id='1003'>0.19336E+02</wgt>
<wgt id='1004'>0.16381E+02</wgt>
<wgt id='1005'>0.17824E+02</wgt>
<wgt id='1006'>0.14599E+02</wgt>
<wgt id='1007'>0.29632E+02</wgt>
<wgt id='1008'>0.32243E+02</wgt>
<wgt id='1009'>0.26409E+02</wgt>
<wgt id='2000'>0.21696E+02</wgt>
<wgt id='2001'>0.21642E+02</wgt>
<wgt id='2002'>0.21619E+02</wgt>
<wgt id='2003'>0.21674E+02</wgt>
<wgt id='2004'>0.21740E+02</wgt>
<wgt id='2005'>0.21652E+02</wgt>
<wgt id='2006'>0.21621E+02</wgt>
<wgt id='2007'>0.21811E+02</wgt>
<wgt id='2008'>0.21721E+02</wgt>
<wgt id='2009'>0.21496E+02</wgt>
<wgt id='2010'>0.21780E+02</wgt>
<wgt id='2011'>0.21871E+02</wgt>
<wgt id='2012'>0.21677E+02</wgt>
<wgt id='2013'>0.21778E+02</wgt>
<wgt id='2014'>0.21424E+02</wgt>
<wgt id='2015'>0.21606E+02</wgt>
<wgt id='2016'>0.21435E+02</wgt>
<wgt id='2017'>0.21820E+02</wgt>
<wgt id='2018'>0.21826E+02</wgt>
<wgt id='2019'>0.21746E+02</wgt>
<wgt id='2020'>0.21818E+02</wgt>
<wgt id='2021'>0.21502E+02</wgt>
<wgt id='2022'>0.21579E+02</wgt>
<wgt id='2023'>0.22132E+02</wgt>
<wgt id='2024'>0.21509E+02</wgt>
<wgt id='2025'>0.21736E+02</wgt>
<wgt id='2026'>0.22154E+02</wgt>
<wgt id='2027'>0.21486E+02</wgt>
<wgt id='2028'>0.21509E+02</wgt>
<wgt id='2029'>0.22239E+02</wgt>
<wgt id='2030'>0.21575E+02</wgt>
<wgt id='2031'>0.21615E+02</wgt>
<wgt id='2032'>0.21659E+02</wgt>
<wgt id='2033'>0.21712E+02</wgt>
<wgt id='2034'>0.21888E+02</wgt>
<wgt id='2035'>0.21307E+02</wgt>
<wgt id='2036'>0.21735E+02</wgt>
<wgt id='2037'>0.21950E+02</wgt>
<wgt id='2038'>0.21600E+02</wgt>
<wgt id='2039'>0.21723E+02</wgt>
<wgt id='2040'>0.21693E+02</wgt>
<wgt id='2041'>0.21731E+02</wgt>
<wgt id='2042'>0.21563E+02</wgt>
<wgt id='2043'>0.21649E+02</wgt>
<wgt id='2044'>0.21668E+02</wgt>
<wgt id='2045'>0.21707E+02</wgt>
<wgt id='2046'>0.21647E+02</wgt>
<wgt id='2047'>0.21676E+02</wgt>
<wgt id='2048'>0.21584E+02</wgt>
<wgt id='2049'>0.21745E+02</wgt>
<wgt id='2050'>0.21699E+02</wgt>
<wgt id='2051'>0.21680E+02</wgt>
<wgt id='2052'>0.21886E+02</wgt>
<wgt id='2053'>0.21692E+02</wgt>
<wgt id='2054'>0.21693E+02</wgt>
<wgt id='2055'>0.21768E+02</wgt>
<wgt id='2056'>0.21677E+02</wgt>
<wgt id='2057'>0.21604E+02</wgt>
<wgt id='2058'>0.21340E+02</wgt>
<wgt id='2059'>0.21689E+02</wgt>
<wgt id='2060'>0.21569E+02</wgt>
<wgt id='2061'>0.21715E+02</wgt>
<wgt id='2062'>0.21681E+02</wgt>
<wgt id='2063'>0.21749E+02</wgt>
<wgt id='2064'>0.21897E+02</wgt>
<wgt id='2065'>0.21453E+02</wgt>
<wgt id='2066'>0.21763E+02</wgt>
<wgt id='2067'>0.21737E+02</wgt>
<wgt id='2068'>0.21610E+02</wgt>
<wgt id='2069'>0.21515E+02</wgt>
<wgt id='2070'>0.21874E+02</wgt>
<wgt id='2071'>0.22004E+02</wgt>
<wgt id='2072'>0.21658E+02</wgt>
<wgt id='2073'>0.21490E+02</wgt>
<wgt id='2074'>0.21779E+02</wgt>
<wgt id='2075'>0.21660E+02</wgt>
<wgt id='2076'>0.21602E+02</wgt>
<wgt id='2077'>0.21898E+02</wgt>
<wgt id='2078'>0.21715E+02</wgt>
<wgt id='2079'>0.21695E+02</wgt>
<wgt id='2080'>0.21629E+02</wgt>
<wgt id='2081'>0.21620E+02</wgt>
<wgt id='2082'>0.21611E+02</wgt>
<wgt id='2083'>0.21724E+02</wgt>
<wgt id='2084'>0.21704E+02</wgt>
<wgt id='2085'>0.21671E+02</wgt>
<wgt id='2086'>0.21687E+02</wgt>
<wgt id='2087'>0.21855E+02</wgt>
<wgt id='2088'>0.21586E+02</wgt>
<wgt id='2089'>0.21786E+02</wgt>
<wgt id='2090'>0.21774E+02</wgt>
<wgt id='2091'>0.21790E+02</wgt>
<wgt id='2092'>0.21684E+02</wgt>
<wgt id='2093'>0.21730E+02</wgt>
<wgt id='2094'>0.21683E+02</wgt>
<wgt id='2095'>0.21706E+02</wgt>
<wgt id='2096'>0.21686E+02</wgt>
<wgt id='2097'>0.21477E+02</wgt>
<wgt id='2098'>0.21908E+02</wgt>
<wgt id='2099'>0.21693E+02</wgt>
<wgt id='2100'>0.21596E+02</wgt>
<wgt id='2101'>0.19735E+02</wgt>
<wgt id='2102'>0.23789E+02</wgt>
<wgt id='2104'>0.12248E+02</wgt>
<wgt id='2105'>0.14034E+02</wgt>
<wgt id='2106'>0.15722E+02</wgt>
<wgt id='2107'>0.17570E+02</wgt>
<wgt id='2108'>0.20595E+02</wgt>
<wgt id='2109'>0.22797E+02</wgt>
<wgt id='2110'>0.26140E+02</wgt>
<wgt id='2111'>0.28876E+02</wgt>
<wgt id='3000'>0.20867E+02</wgt>
<wgt id='3001'>0.20895E+02</wgt>
<wgt id='3002'>0.20807E+02</wgt>
<wgt id='3003'>0.20841E+02</wgt>
<wgt id='3004'>0.20828E+02</wgt>
<wgt id='3005'>0.20871E+02</wgt>
<wgt id='3006'>0.20738E+02</wgt>
<wgt id='3007'>0.20674E+02</wgt>
<wgt id='3008'>0.20738E+02</wgt>
<wgt id='3009'>0.20625E+02</wgt>
<wgt id='3010'>0.20944E+02</wgt>
<wgt id='3011'>0.20893E+02</wgt>
<wgt id='3012'>0.20999E+02</wgt>
<wgt id='3013'>0.20760E+02</wgt>
<wgt id='3014'>0.20581E+02</wgt>
<wgt id='3015'>0.21060E+02</wgt>
<wgt id='3016'>0.20730E+02</wgt>
<wgt id='3017'>0.21006E+02</wgt>
<wgt id='3018'>0.20901E+02</wgt>
<wgt id='3019'>0.21056E+02</wgt>
<wgt id='3020'>0.21098E+02</wgt>
<wgt id='3021'>0.20483E+02</wgt>
<wgt id='3022'>0.20870E+02</wgt>
<wgt id='3023'>0.20685E+02</wgt>
<wgt id='3024'>0.20568E+02</wgt>
<wgt id='3025'>0.21124E+02</wgt>
<wgt id='3026'>0.20882E+02</wgt>
<wgt id='3027'>0.21014E+02</wgt>
<wgt id='3028'>0.20690E+02</wgt>
<wgt id='3029'>0.20425E+02</wgt>
<wgt id='3030'>0.21223E+02</wgt>
<wgt id='3031'>0.21177E+02</wgt>
<wgt id='3032'>0.20918E+02</wgt>
<wgt id='3033'>0.20929E+02</wgt>
<wgt id='3034'>0.21070E+02</wgt>
<wgt id='3035'>0.21103E+02</wgt>
<wgt id='3036'>0.21097E+02</wgt>
<wgt id='3037'>0.21008E+02</wgt>
<wgt id='3038'>0.21079E+02</wgt>
<wgt id='3039'>0.20973E+02</wgt>
<wgt id='3040'>0.20891E+02</wgt>
<wgt id='3041'>0.21044E+02</wgt>
<wgt id='3042'>0.20948E+02</wgt>
<wgt id='3043'>0.20619E+02</wgt>
<wgt id='3044'>0.21070E+02</wgt>
<wgt id='3045'>0.20818E+02</wgt>
<wgt id='3046'>0.20969E+02</wgt>
<wgt id='3047'>0.20831E+02</wgt>
<wgt id='3048'>0.20730E+02</wgt>
<wgt id='3049'>0.20788E+02</wgt>
<wgt id='3050'>0.20727E+02</wgt>
<wgt id='3051'>0.20660E+02</wgt>
<wgt id='3052'>0.20953E+02</wgt>
<wgt id='3053'>0.21064E+02</wgt>
<wgt id='3054'>0.20908E+02</wgt>
<wgt id='3055'>0.20844E+02</wgt>
<wgt id='3056'>0.20864E+02</wgt>
<wgt id='3057'>0.21068E+02</wgt>
<wgt id='3058'>0.21073E+02</wgt>
<wgt id='3059'>0.20729E+02</wgt>
<wgt id='3060'>0.20713E+02</wgt>
<wgt id='3061'>0.20743E+02</wgt>
<wgt id='3062'>0.20777E+02</wgt>
<wgt id='3063'>0.20588E+02</wgt>
<wgt id='3064'>0.20944E+02</wgt>
<wgt id='3065'>0.20788E+02</wgt>
<wgt id='3066'>0.20760E+02</wgt>
<wgt id='3067'>0.21092E+02</wgt>
<wgt id='3068'>0.20845E+02</wgt>
<wgt id='3069'>0.21115E+02</wgt>
<wgt id='3070'>0.20934E+02</wgt>
<wgt id='3071'>0.20872E+02</wgt>
<wgt id='3072'>0.20671E+02</wgt>
<wgt id='3073'>0.21020E+02</wgt>
<wgt id='3074'>0.20697E+02</wgt>
<wgt id='3075'>0.20970E+02</wgt>
<wgt id='3076'>0.20907E+02</wgt>
<wgt id='3077'>0.20672E+02</wgt>
<wgt id='3078'>0.20817E+02</wgt>
<wgt id='3079'>0.20962E+02</wgt>
<wgt id='3080'>0.20975E+02</wgt>
<wgt id='3081'>0.20825E+02</wgt>
<wgt id='3082'>0.20946E+02</wgt>
<wgt id='3083'>0.20790E+02</wgt>
<wgt id='3084'>0.20961E+02</wgt>
<wgt id='3085'>0.20875E+02</wgt>
<wgt id='3086'>0.20977E+02</wgt>
<wgt id='3087'>0.20914E+02</wgt>
<wgt id='3088'>0.21035E+02</wgt>
<wgt id='3089'>0.20997E+02</wgt>
<wgt id='3090'>0.20879E+02</wgt>
<wgt id='3091'>0.20782E+02</wgt>
<wgt id='3092'>0.20949E+02</wgt>
<wgt id='3093'>0.20859E+02</wgt>
<wgt id='3094'>0.20715E+02</wgt>
<wgt id='3095'>0.20626E+02</wgt>
<wgt id='3096'>0.20965E+02</wgt>
<wgt id='3097'>0.20940E+02</wgt>
<wgt id='3098'>0.20920E+02</wgt>
<wgt id='3099'>0.20662E+02</wgt>
<wgt id='3100'>0.20891E+02</wgt>
<wgt id='3101'>0.18562E+02</wgt>
<wgt id='3102'>0.22977E+02</wgt>
<wgt id='5000'>0.25334E+02</wgt>
<wgt id='5001'>0.25320E+02</wgt>
<wgt id='5002'>0.25303E+02</wgt>
<wgt id='5003'>0.25315E+02</wgt>
<wgt id='5004'>0.25237E+02</wgt>
<wgt id='5005'>0.25059E+02</wgt>
<wgt id='5006'>0.24809E+02</wgt>
<wgt id='5007'>0.25044E+02</wgt>
<wgt id='5008'>0.25398E+02</wgt>
<wgt id='5009'>0.25270E+02</wgt>
<wgt id='5010'>0.25304E+02</wgt>
<wgt id='5011'>0.25447E+02</wgt>
<wgt id='5012'>0.25192E+02</wgt>
<wgt id='5013'>0.25452E+02</wgt>
<wgt id='5014'>0.25485E+02</wgt>
<wgt id='5015'>0.25375E+02</wgt>
<wgt id='5016'>0.25156E+02</wgt>
<wgt id='5017'>0.25010E+02</wgt>
<wgt id='5018'>0.25672E+02</wgt>
<wgt id='5019'>0.25418E+02</wgt>
<wgt id='5020'>0.25248E+02</wgt>
<wgt id='5021'>0.25294E+02</wgt>
<wgt id='5022'>0.25357E+02</wgt>
<wgt id='5023'>0.25148E+02</wgt>
<wgt id='5024'>0.25534E+02</wgt>
<wgt id='5025'>0.25410E+02</wgt>
<wgt id='5026'>0.25271E+02</wgt>
<wgt id='5027'>0.25519E+02</wgt>
<wgt id='5028'>0.25017E+02</wgt>
<wgt id='5029'>0.25073E+02</wgt>
<wgt id='5030'>0.25486E+02</wgt>
<wgt id='5031'>0.25121E+02</wgt>
<wgt id='5032'>0.25639E+02</wgt>
<wgt id='5033'>0.25211E+02</wgt>
<wgt id='5034'>0.25440E+02</wgt>
<wgt id='5035'>0.25247E+02</wgt>
<wgt id='5036'>0.25391E+02</wgt>
<wgt id='5037'>0.24786E+02</wgt>
<wgt id='5038'>0.25947E+02</wgt>
<wgt id='5039'>0.26031E+02</wgt>
<wgt id='5040'>0.24981E+02</wgt>
<wgt id='5041'>0.25305E+02</wgt>
<wgt id='5042'>0.25324E+02</wgt>
<wgt id='5043'>0.25579E+02</wgt>
<wgt id='5044'>0.24991E+02</wgt>
<wgt id='5045'>0.25495E+02</wgt>
<wgt id='5046'>0.24933E+02</wgt>
<wgt id='5047'>0.25176E+02</wgt>
<wgt id='5048'>0.25435E+02</wgt>
<wgt id='5049'>0.25327E+02</wgt>
<wgt id='5050'>0.25366E+02</wgt>
<wgt id='5051'>0.25360E+02</wgt>
<wgt id='5052'>0.25316E+02</wgt>
<wgt id='5053'>0.24394E+02</wgt>
<wgt id='5054'>0.24873E+02</wgt>
<wgt id='5055'>0.25086E+02</wgt>
<wgt id='5056'>0.25786E+02</wgt>
<wgt id='5060'>0.23493E+02</wgt>
<wgt id='5070'>0.27298E+02</wgt>
<wgt id='4000'>0.24701E+02</wgt>
<wgt id='4001'>0.24682E+02</wgt>
<wgt id='4002'>0.24758E+02</wgt>
<wgt id='4003'>0.24298E+02</wgt>
<wgt id='4004'>0.24627E+02</wgt>
<wgt id='4005'>0.24763E+02</wgt>
<wgt id='4006'>0.24679E+02</wgt>
<wgt id='4007'>0.24641E+02</wgt>
<wgt id='4008'>0.24655E+02</wgt>
<wgt id='4009'>0.24546E+02</wgt>
<wgt id='4010'>0.24808E+02</wgt>
<wgt id='4011'>0.25111E+02</wgt>
<wgt id='4012'>0.24408E+02</wgt>
<wgt id='4013'>0.24266E+02</wgt>
<wgt id='4014'>0.24979E+02</wgt>
<wgt id='4015'>0.25255E+02</wgt>
<wgt id='4016'>0.24345E+02</wgt>
<wgt id='4017'>0.24181E+02</wgt>
<wgt id='4018'>0.25319E+02</wgt>
<wgt id='4019'>0.24897E+02</wgt>
<wgt id='4020'>0.24476E+02</wgt>
<wgt id='4021'>0.24750E+02</wgt>
<wgt id='4022'>0.24591E+02</wgt>
<wgt id='4023'>0.24722E+02</wgt>
<wgt id='4024'>0.24665E+02</wgt>
<wgt id='4025'>0.24929E+02</wgt>
<wgt id='4026'>0.24470E+02</wgt>
<wgt id='4027'>0.24749E+02</wgt>
<wgt id='4028'>0.24629E+02</wgt>
<wgt id='4029'>0.24668E+02</wgt>
<wgt id='4030'>0.24713E+02</wgt>
<wgt id='4031'>0.24782E+02</wgt>
<wgt id='4032'>0.24595E+02</wgt>
<wgt id='4033'>0.24580E+02</wgt>
<wgt id='4034'>0.24966E+02</wgt>
<wgt id='4035'>0.24491E+02</wgt>
<wgt id='4036'>0.24910E+02</wgt>
<wgt id='4037'>0.24664E+02</wgt>
<wgt id='4038'>0.24715E+02</wgt>
<wgt id='4039'>0.24588E+02</wgt>
<wgt id='4040'>0.24781E+02</wgt>
<wgt id='4041'>0.24674E+02</wgt>
<wgt id='4042'>0.24740E+02</wgt>
<wgt id='4043'>0.24480E+02</wgt>
<wgt id='4044'>0.25022E+02</wgt>
<wgt id='4045'>0.24645E+02</wgt>
<wgt id='4046'>0.24710E+02</wgt>
<wgt id='4047'>0.24653E+02</wgt>
<wgt id='4048'>0.24313E+02</wgt>
<wgt id='4049'>0.24290E+02</wgt>
<wgt id='4050'>0.24673E+02</wgt>
<wgt id='4051'>0.24697E+02</wgt>
<wgt id='4052'>0.24682E+02</wgt>
<wgt id='4053'>0.23704E+02</wgt>
<wgt id='4054'>0.24891E+02</wgt>
<wgt id='4055'>0.24529E+02</wgt>
<wgt id='4056'>0.25025E+02</wgt>
<wgt id='4060'>0.22971E+02</wgt>
<wgt id='4070'>0.26562E+02</wgt>
<wgt id='4080'>0.22494E+02</wgt>
<wgt id='6000'>0.24396E+02</wgt>
<wgt id='6001'>0.24424E+02</wgt>
<wgt id='6002'>0.24365E+02</wgt>
<wgt id='6003'>0.24412E+02</wgt>
<wgt id='6004'>0.24385E+02</wgt>
<wgt id='6005'>0.24503E+02</wgt>
<wgt id='6006'>0.24294E+02</wgt>
<wgt id='6007'>0.24278E+02</wgt>
<wgt id='6008'>0.24528E+02</wgt>
<wgt id='6009'>0.24492E+02</wgt>
<wgt id='6010'>0.24301E+02</wgt>
<wgt id='6011'>0.24453E+02</wgt>
<wgt id='6012'>0.24272E+02</wgt>
<wgt id='6013'>0.24365E+02</wgt>
<wgt id='6014'>0.24449E+02</wgt>
<wgt id='6015'>0.24322E+02</wgt>
<wgt id='6016'>0.24437E+02</wgt>
<wgt id='6017'>0.24214E+02</wgt>
<wgt id='6018'>0.24611E+02</wgt>
<wgt id='6019'>0.24404E+02</wgt>
<wgt id='6020'>0.24387E+02</wgt>
<wgt id='6021'>0.24321E+02</wgt>
<wgt id='6022'>0.24496E+02</wgt>
<wgt id='6023'>0.24168E+02</wgt>
<wgt id='6024'>0.24552E+02</wgt>
<wgt id='6025'>0.24407E+02</wgt>
<wgt id='6026'>0.24340E+02</wgt>
<wgt id='6027'>0.24457E+02</wgt>
<wgt id='6028'>0.24395E+02</wgt>
<wgt id='6029'>0.24374E+02</wgt>
<wgt id='6030'>0.24425E+02</wgt>
<wgt id='6031'>0.24166E+02</wgt>
<wgt id='6032'>0.24646E+02</wgt>
<wgt id='6033'>0.24530E+02</wgt>
<wgt id='6034'>0.24262E+02</wgt>
<wgt id='6035'>0.24435E+02</wgt>
<wgt id='6036'>0.24341E+02</wgt>
<wgt id='6037'>0.24443E+02</wgt>
<wgt id='6038'>0.24386E+02</wgt>
<wgt id='6039'>0.24316E+02</wgt>
<wgt id='6040'>0.24485E+02</wgt>
<wgt id='6041'>0.24229E+02</wgt>
<wgt id='6042'>0.24591E+02</wgt>
<wgt id='6043'>0.24760E+02</wgt>
<wgt id='6044'>0.24249E+02</wgt>
<wgt id='6045'>0.24361E+02</wgt>
<wgt id='6046'>0.24486E+02</wgt>
<wgt id='6047'>0.24604E+02</wgt>
<wgt id='6048'>0.24088E+02</wgt>
<wgt id='6049'>0.24477E+02</wgt>
<wgt id='6050'>0.24352E+02</wgt>
<wgt id='7000'>0.24304E+02</wgt>
<wgt id='7001'>0.24310E+02</wgt>
<wgt id='7002'>0.24298E+02</wgt>
<wgt id='7003'>0.24403E+02</wgt>
<wgt id='7004'>0.24207E+02</wgt>
<wgt id='7005'>0.24364E+02</wgt>
<wgt id='7006'>0.24281E+02</wgt>
<wgt id='7007'>0.24220E+02</wgt>
<wgt id='7008'>0.24388E+02</wgt>
<wgt id='7009'>0.24357E+02</wgt>
<wgt id='7010'>0.24253E+02</wgt>
<wgt id='7011'>0.24059E+02</wgt>
<wgt id='7012'>0.24409E+02</wgt>
<wgt id='7013'>0.24299E+02</wgt>
<wgt id='7014'>0.24310E+02</wgt>
<wgt id='7015'>0.24237E+02</wgt>
<wgt id='7016'>0.24376E+02</wgt>
<wgt id='7017'>0.24184E+02</wgt>
<wgt id='7018'>0.24370E+02</wgt>
<wgt id='7019'>0.24289E+02</wgt>
<wgt id='7020'>0.24325E+02</wgt>
<wgt id='7021'>0.24273E+02</wgt>
<wgt id='7022'>0.24325E+02</wgt>
<wgt id='7023'>0.24573E+02</wgt>
<wgt id='7024'>0.24041E+02</wgt>
<wgt id='7025'>0.24408E+02</wgt>
<wgt id='7026'>0.24049E+02</wgt>
<wgt id='7027'>0.24382E+02</wgt>
<wgt id='7028'>0.24272E+02</wgt>
<wgt id='7029'>0.24324E+02</wgt>
<wgt id='7030'>0.24245E+02</wgt>
<wgt id='7031'>0.24199E+02</wgt>
<wgt id='7032'>0.24526E+02</wgt>
<wgt id='7033'>0.24321E+02</wgt>
<wgt id='7034'>0.24286E+02</wgt>
<wgt id='7035'>0.24196E+02</wgt>
<wgt id='7036'>0.24365E+02</wgt>
<wgt id='7037'>0.24305E+02</wgt>
<wgt id='7038'>0.24322E+02</wgt>
<wgt id='7039'>0.24197E+02</wgt>
<wgt id='7040'>0.24384E+02</wgt>
<wgt id='7041'>0.24308E+02</wgt>
<wgt id='7042'>0.24279E+02</wgt>
<wgt id='7043'>0.24334E+02</wgt>
<wgt id='7044'>0.24133E+02</wgt>
<wgt id='7045'>0.23953E+02</wgt>
<wgt id='7046'>0.24530E+02</wgt>
<wgt id='7047'>0.24434E+02</wgt>
<wgt id='7048'>0.24245E+02</wgt>
<wgt id='7049'>0.24188E+02</wgt>
<wgt id='7050'>0.24372E+02</wgt>
<wgt id='7060'>0.39472E+02</wgt>
<wgt id='8000'>0.24496E+02</wgt>
<wgt id='8001'>0.24486E+02</wgt>
<wgt id='8002'>0.24506E+02</wgt>
<wgt id='8003'>0.24498E+02</wgt>
<wgt id='8004'>0.24495E+02</wgt>
<wgt id='8005'>0.24425E+02</wgt>
<wgt id='8006'>0.24509E+02</wgt>
<wgt id='8007'>0.24513E+02</wgt>
<wgt id='8008'>0.24569E+02</wgt>
<wgt id='8009'>0.24641E+02</wgt>
<wgt id='8010'>0.24471E+02</wgt>
<wgt id='8011'>0.24508E+02</wgt>
<wgt id='8012'>0.24417E+02</wgt>
<wgt id='8013'>0.24308E+02</wgt>
<wgt id='8014'>0.24528E+02</wgt>
<wgt id='8015'>0.24452E+02</wgt>
<wgt id='8016'>0.24538E+02</wgt>
<wgt id='8017'>0.24492E+02</wgt>
<wgt id='8018'>0.24571E+02</wgt>
<wgt id='8019'>0.24508E+02</wgt>
<wgt id='8020'>0.24470E+02</wgt>
<wgt id='8021'>0.24466E+02</wgt>
<wgt id='8022'>0.24424E+02</wgt>
<wgt id='8023'>0.24477E+02</wgt>
<wgt id='8024'>0.24421E+02</wgt>
<wgt id='8025'>0.24508E+02</wgt>
<wgt id='8026'>0.24555E+02</wgt>
<wgt id='8027'>0.24495E+02</wgt>
<wgt id='8028'>0.24525E+02</wgt>
<wgt id='8029'>0.24486E+02</wgt>
<wgt id='8500'>0.24906E+02</wgt>
<wgt id='8501'>0.24638E+02</wgt>
<wgt id='8502'>0.24982E+02</wgt>
<wgt id='8503'>0.24976E+02</wgt>
<wgt id='8504'>0.24780E+02</wgt>
<wgt id='8505'>0.24969E+02</wgt>
<wgt id='8506'>0.24926E+02</wgt>
<wgt id='8507'>0.24850E+02</wgt>
<wgt id='8508'>0.24637E+02</wgt>
<wgt id='8509'>0.25003E+02</wgt>
<wgt id='8510'>0.25120E+02</wgt>
<wgt id='8511'>0.24826E+02</wgt>
<wgt id='8512'>0.24867E+02</wgt>
<wgt id='8513'>0.25012E+02</wgt>
<wgt id='8514'>0.24558E+02</wgt>
<wgt id='8515'>0.25081E+02</wgt>
<wgt id='8516'>0.24786E+02</wgt>
<wgt id='8517'>0.24763E+02</wgt>
<wgt id='8518'>0.24762E+02</wgt>
<wgt id='8519'>0.24631E+02</wgt>
<wgt id='8520'>0.24756E+02</wgt>
<wgt id='8521'>0.24840E+02</wgt>
<wgt id='8522'>0.25028E+02</wgt>
<wgt id='8523'>0.24730E+02</wgt>
<wgt id='8524'>0.24973E+02</wgt>
<wgt id='8525'>0.25045E+02</wgt>
<wgt id='8526'>0.24883E+02</wgt>
<wgt id='8527'>0.24879E+02</wgt>
<wgt id='8528'>0.24884E+02</wgt>
<wgt id='8529'>0.24899E+02</wgt>
<wgt id='8530'>0.24913E+02</wgt>
<wgt id='8531'>0.24898E+02</wgt>
<wgt id='8532'>0.24912E+02</wgt>
<wgt id='8533'>0.24874E+02</wgt>
<wgt id='8534'>0.24935E+02</wgt>
<wgt id='8535'>0.24944E+02</wgt>
<wgt id='8536'>0.24876E+02</wgt>
<wgt id='8537'>0.24909E+02</wgt>
<wgt id='8538'>0.24868E+02</wgt>
<wgt id='8539'>0.24909E+02</wgt>
<wgt id='8540'>0.24920E+02</wgt>
<wgt id='8541'>0.24903E+02</wgt>
<wgt id='8542'>0.24903E+02</wgt>
<wgt id='8543'>0.24886E+02</wgt>
<wgt id='8544'>0.24925E+02</wgt>
<wgt id='8545'>0.24917E+02</wgt>
<wgt id='8546'>0.24911E+02</wgt>
<wgt id='8547'>0.24918E+02</wgt>
<wgt id='8548'>0.24882E+02</wgt>
<wgt id='8549'>0.24914E+02</wgt>
<wgt id='8550'>0.24901E+02</wgt>
<wgt id='8551'>0.24891E+02</wgt>
<wgt id='8552'>0.24899E+02</wgt>
<wgt id='8553'>0.24893E+02</wgt>
<wgt id='8554'>0.24900E+02</wgt>
<wgt id='8555'>0.24899E+02</wgt>
<wgt id='8556'>0.24909E+02</wgt>
<wgt id='8557'>0.24903E+02</wgt>
<wgt id='8558'>0.24914E+02</wgt>
<wgt id='8559'>0.24901E+02</wgt>
<wgt id='8560'>0.24897E+02</wgt>
<wgt id='8561'>0.24906E+02</wgt>
<wgt id='8562'>0.24893E+02</wgt>
<wgt id='8563'>0.24907E+02</wgt>
<wgt id='8564'>0.24899E+02</wgt>
<wgt id='8565'>0.24903E+02</wgt>
<wgt id='8566'>0.24928E+02</wgt>
<wgt id='8567'>0.24918E+02</wgt>
<wgt id='8568'>0.24912E+02</wgt>
<wgt id='8569'>0.24909E+02</wgt>
<wgt id='8570'>0.24895E+02</wgt>
<wgt id='8571'>0.24908E+02</wgt>
<wgt id='8572'>0.24899E+02</wgt>
<wgt id='8573'>0.24884E+02</wgt>
<wgt id='8574'>0.24901E+02</wgt>
<wgt id='8575'>0.24908E+02</wgt>
<wgt id='8576'>0.24913E+02</wgt>
<wgt id='8577'>0.24884E+02</wgt>
<wgt id='8578'>0.24914E+02</wgt>
<wgt id='8579'>0.24919E+02</wgt>
<wgt id='8580'>0.24899E+02</wgt>
<wgt id='8581'>0.24897E+02</wgt>
<wgt id='8582'>0.24909E+02</wgt>
<wgt id='8583'>0.24914E+02</wgt>
<wgt id='8584'>0.24919E+02</wgt>
<wgt id='8585'>0.24907E+02</wgt>
<wgt id='8586'>0.24934E+02</wgt>
<wgt id='8587'>0.24915E+02</wgt>
<wgt id='8588'>0.24907E+02</wgt>
<wgt id='8589'>0.24911E+02</wgt>
<wgt id='8590'>0.24902E+02</wgt>
<wgt id='8591'>0.24889E+02</wgt>
<wgt id='8592'>0.24904E+02</wgt>
<wgt id='8593'>0.24898E+02</wgt>
<wgt id='8594'>0.24898E+02</wgt>
<wgt id='8595'>0.24901E+02</wgt>
<wgt id='8596'>0.24893E+02</wgt>
<wgt id='8597'>0.24917E+02</wgt>
<wgt id='8598'>0.24909E+02</wgt>
<wgt id='8599'>0.24914E+02</wgt>
<wgt id='8600'>0.24908E+02</wgt>
<wgt id='8601'>0.23711E+02</wgt>
<wgt id='8602'>0.26147E+02</wgt>
<wgt id='9000'>0.25148E+02</wgt>
<wgt id='9001'>0.25033E+02</wgt>
<wgt id='9002'>0.25193E+02</wgt>
<wgt id='9003'>0.25022E+02</wgt>
<wgt id='9004'>0.25152E+02</wgt>
<wgt id='9005'>0.25253E+02</wgt>
<wgt id='9006'>0.25269E+02</wgt>
<wgt id='9007'>0.25235E+02</wgt>
<wgt id='9008'>0.25182E+02</wgt>
<wgt id='9009'>0.25158E+02</wgt>
<wgt id='9010'>0.25017E+02</wgt>
<wgt id='9011'>0.25486E+02</wgt>
<wgt id='9012'>0.25184E+02</wgt>
<wgt id='9013'>0.25049E+02</wgt>
<wgt id='9014'>0.25113E+02</wgt>
<wgt id='9015'>0.24899E+02</wgt>
<wgt id='9016'>0.25516E+02</wgt>
<wgt id='9017'>0.24879E+02</wgt>
<wgt id='9018'>0.25131E+02</wgt>
<wgt id='9019'>0.25274E+02</wgt>
<wgt id='9020'>0.25518E+02</wgt>
<wgt id='9021'>0.25091E+02</wgt>
<wgt id='9022'>0.25207E+02</wgt>
<wgt id='9023'>0.24990E+02</wgt>
<wgt id='9024'>0.24994E+02</wgt>
<wgt id='9025'>0.25136E+02</wgt>
<wgt id='9026'>0.25064E+02</wgt>
<wgt id='9027'>0.25210E+02</wgt>
<wgt id='9028'>0.25225E+02</wgt>
<wgt id='9029'>0.25139E+02</wgt>
<wgt id='9030'>0.25141E+02</wgt>
<wgt id='9031'>0.25215E+02</wgt>
<wgt id='9032'>0.25138E+02</wgt>
<wgt id='9033'>0.25156E+02</wgt>
<wgt id='9034'>0.25154E+02</wgt>
<wgt id='9035'>0.25175E+02</wgt>
<wgt id='9036'>0.25157E+02</wgt>
<wgt id='9037'>0.25179E+02</wgt>
<wgt id='9038'>0.25151E+02</wgt>
<wgt id='9039'>0.25119E+02</wgt>
<wgt id='9040'>0.25113E+02</wgt>
<wgt id='9041'>0.25122E+02</wgt>
<wgt id='9042'>0.25139E+02</wgt>
<wgt id='9043'>0.25156E+02</wgt>
<wgt id='9044'>0.25146E+02</wgt>
<wgt id='9045'>0.25137E+02</wgt>
<wgt id='9046'>0.25133E+02</wgt>
<wgt id='9047'>0.25130E+02</wgt>
<wgt id='9048'>0.25175E+02</wgt>
<wgt id='9049'>0.25128E+02</wgt>
<wgt id='9050'>0.25158E+02</wgt>
<wgt id='9051'>0.25155E+02</wgt>
<wgt id='9052'>0.25160E+02</wgt>
<wgt id='9053'>0.25155E+02</wgt>
<wgt id='9054'>0.25145E+02</wgt>
<wgt id='9055'>0.25148E+02</wgt>
<wgt id='9056'>0.25140E+02</wgt>
<wgt id='9057'>0.25147E+02</wgt>
<wgt id='9058'>0.25152E+02</wgt>
<wgt id='9059'>0.25151E+02</wgt>
<wgt id='9060'>0.25158E+02</wgt>
<wgt id='9061'>0.25156E+02</wgt>
<wgt id='9062'>0.25148E+02</wgt>
<wgt id='9063'>0.25144E+02</wgt>
<wgt id='9064'>0.25159E+02</wgt>
<wgt id='9065'>0.25141E+02</wgt>
<wgt id='9066'>0.25143E+02</wgt>
<wgt id='9067'>0.25142E+02</wgt>
<wgt id='9068'>0.25153E+02</wgt>
<wgt id='9069'>0.25151E+02</wgt>
<wgt id='9070'>0.25141E+02</wgt>
<wgt id='9071'>0.25169E+02</wgt>
<wgt id='9072'>0.25155E+02</wgt>
<wgt id='9073'>0.25136E+02</wgt>
<wgt id='9074'>0.25152E+02</wgt>
<wgt id='9075'>0.25149E+02</wgt>
<wgt id='9076'>0.25164E+02</wgt>
<wgt id='9077'>0.25156E+02</wgt>
<wgt id='9078'>0.25162E+02</wgt>
<wgt id='9079'>0.25146E+02</wgt>
<wgt id='9080'>0.25149E+02</wgt>
<wgt id='9081'>0.25163E+02</wgt>
<wgt id='9082'>0.25158E+02</wgt>
<wgt id='9083'>0.25142E+02</wgt>
<wgt id='9084'>0.25135E+02</wgt>
<wgt id='9085'>0.25145E+02</wgt>
<wgt id='9086'>0.25168E+02</wgt>
<wgt id='9087'>0.25127E+02</wgt>
<wgt id='9088'>0.25134E+02</wgt>
<wgt id='9089'>0.25134E+02</wgt>
<wgt id='9090'>0.25148E+02</wgt>
<wgt id='9091'>0.25136E+02</wgt>
<wgt id='9092'>0.25138E+02</wgt>
<wgt id='9093'>0.25147E+02</wgt>
<wgt id='9094'>0.25133E+02</wgt>
<wgt id='9095'>0.25151E+02</wgt>
<wgt id='9096'>0.25149E+02</wgt>
<wgt id='9097'>0.25153E+02</wgt>
<wgt id='9098'>0.25145E+02</wgt>
<wgt id='9099'>0.25147E+02</wgt>
<wgt id='9100'>0.25151E+02</wgt>
<wgt id='9101'>0.23949E+02</wgt>
<wgt id='9102'>0.26347E+02</wgt>
<wgt id='10000'>0.24907E+02</wgt>
<wgt id='10001'>0.24846E+02</wgt>
<wgt id='10002'>0.24510E+02</wgt>
<wgt id='10003'>0.24888E+02</wgt>
<wgt id='10004'>0.24514E+02</wgt>
<wgt id='10005'>0.25037E+02</wgt>
<wgt id='10006'>0.24623E+02</wgt>
<wgt id='10007'>0.24911E+02</wgt>
<wgt id='10008'>0.25001E+02</wgt>
<wgt id='10009'>0.24775E+02</wgt>
<wgt id='10010'>0.24970E+02</wgt>
<wgt id='10011'>0.24756E+02</wgt>
<wgt id='10012'>0.24873E+02</wgt>
<wgt id='10013'>0.24930E+02</wgt>
<wgt id='10014'>0.24860E+02</wgt>
<wgt id='10015'>0.24993E+02</wgt>
<wgt id='10016'>0.24836E+02</wgt>
<wgt id='10017'>0.24895E+02</wgt>
<wgt id='10018'>0.25005E+02</wgt>
<wgt id='10019'>0.24804E+02</wgt>
<wgt id='10020'>0.24885E+02</wgt>
<wgt id='10021'>0.24855E+02</wgt>
<wgt id='10022'>0.24826E+02</wgt>
<wgt id='10023'>0.24929E+02</wgt>
<wgt id='10024'>0.24819E+02</wgt>
<wgt id='10025'>0.24892E+02</wgt>
<wgt id='10026'>0.24997E+02</wgt>
<wgt id='10027'>0.25000E+02</wgt>
<wgt id='10028'>0.25277E+02</wgt>
<wgt id='10029'>0.24949E+02</wgt>
<wgt id='10030'>0.24922E+02</wgt>
<wgt id='10031'>0.23711E+02</wgt>
<wgt id='10032'>0.26147E+02</wgt>
<wgt id='11000'>0.25149E+02</wgt>
<wgt id='11001'>0.24481E+02</wgt>
<wgt id='11002'>0.25070E+02</wgt>
<wgt id='11003'>0.25118E+02</wgt>
<wgt id='11004'>0.25076E+02</wgt>
<wgt id='11005'>0.24872E+02</wgt>
<wgt id='11006'>0.25130E+02</wgt>
<wgt id='11007'>0.25201E+02</wgt>
<wgt id='11008'>0.25004E+02</wgt>
<wgt id='11009'>0.25191E+02</wgt>
<wgt id='11010'>0.25244E+02</wgt>
<wgt id='11011'>0.25187E+02</wgt>
<wgt id='11012'>0.25121E+02</wgt>
<wgt id='11013'>0.25127E+02</wgt>
<wgt id='11014'>0.25086E+02</wgt>
<wgt id='11015'>0.24934E+02</wgt>
<wgt id='11016'>0.25033E+02</wgt>
<wgt id='11017'>0.25335E+02</wgt>
<wgt id='11018'>0.25081E+02</wgt>
<wgt id='11019'>0.25147E+02</wgt>
<wgt id='11020'>0.25305E+02</wgt>
<wgt id='11021'>0.25205E+02</wgt>
<wgt id='11022'>0.25388E+02</wgt>
<wgt id='11023'>0.25161E+02</wgt>
<wgt id='11024'>0.25202E+02</wgt>
<wgt id='11025'>0.25111E+02</wgt>
<wgt id='11026'>0.25213E+02</wgt>
<wgt id='11027'>0.25228E+02</wgt>
<wgt id='11028'>0.25253E+02</wgt>
<wgt id='11029'>0.25071E+02</wgt>
<wgt id='11030'>0.25156E+02</wgt>
<wgt id='11031'>0.23949E+02</wgt>
<wgt id='11032'>0.26347E+02</wgt>
<wgt id='12000'>0.22785E+02</wgt>
<wgt id='12001'>0.22746E+02</wgt>
<wgt id='12002'>0.22825E+02</wgt>
<wgt id='12003'>0.22837E+02</wgt>
<wgt id='12004'>0.22733E+02</wgt>
<wgt id='12005'>0.22830E+02</wgt>
<wgt id='12006'>0.22741E+02</wgt>
<wgt id='12007'>0.22904E+02</wgt>
<wgt id='12008'>0.22669E+02</wgt>
<wgt id='12009'>0.22788E+02</wgt>
<wgt id='12010'>0.22784E+02</wgt>
<wgt id='12011'>0.22606E+02</wgt>
<wgt id='12012'>0.22975E+02</wgt>
<wgt id='12013'>0.22696E+02</wgt>
<wgt id='12014'>0.22876E+02</wgt>
<wgt id='12015'>0.22871E+02</wgt>
<wgt id='12016'>0.22674E+02</wgt>
<wgt id='12017'>0.22908E+02</wgt>
<wgt id='12018'>0.22680E+02</wgt>
<wgt id='12019'>0.22838E+02</wgt>
<wgt id='12020'>0.22723E+02</wgt>
<wgt id='12021'>0.22862E+02</wgt>
<wgt id='12022'>0.22690E+02</wgt>
<wgt id='12023'>0.22509E+02</wgt>
<wgt id='12024'>0.22961E+02</wgt>
<wgt id='12025'>0.22664E+02</wgt>
<wgt id='12026'>0.22936E+02</wgt>
<wgt id='12027'>0.23118E+02</wgt>
<wgt id='12028'>0.22493E+02</wgt>
<wgt id='12050'>0.22785E+02</wgt>
<wgt id='12051'>0.22829E+02</wgt>
<wgt id='12052'>0.22691E+02</wgt>
<wgt id='12053'>0.22821E+02</wgt>
<wgt id='12054'>0.22724E+02</wgt>
<wgt id='12055'>0.22767E+02</wgt>
<wgt id='12056'>0.22976E+02</wgt>
<wgt id='12057'>0.22745E+02</wgt>
<wgt id='12058'>0.22840E+02</wgt>
<wgt id='12059'>0.23311E+02</wgt>
<wgt id='12060'>0.22303E+02</wgt>
<wgt id='12061'>0.22639E+02</wgt>
<wgt id='12062'>0.22406E+02</wgt>
<wgt id='12063'>0.22736E+02</wgt>
<wgt id='13000'>0.24471E+02</wgt>
<wgt id='13001'>0.24439E+02</wgt>
<wgt id='13002'>0.24494E+02</wgt>
<wgt id='13003'>0.24490E+02</wgt>
<wgt id='13004'>0.24443E+02</wgt>
<wgt id='13005'>0.24530E+02</wgt>
<wgt id='13006'>0.24403E+02</wgt>
<wgt id='13007'>0.24641E+02</wgt>
<wgt id='13008'>0.24296E+02</wgt>
<wgt id='13009'>0.24371E+02</wgt>
<wgt id='13010'>0.24564E+02</wgt>
<wgt id='13011'>0.24587E+02</wgt>
<wgt id='13012'>0.24347E+02</wgt>
<wgt id='13013'>0.24402E+02</wgt>
<wgt id='13014'>0.24530E+02</wgt>
<wgt id='13015'>0.24463E+02</wgt>
<wgt id='13016'>0.24430E+02</wgt>
<wgt id='13017'>0.24459E+02</wgt>
<wgt id='13018'>0.24472E+02</wgt>
<wgt id='13019'>0.24458E+02</wgt>
<wgt id='13020'>0.24477E+02</wgt>
<wgt id='13021'>0.24478E+02</wgt>
<wgt id='13022'>0.24427E+02</wgt>
<wgt id='13023'>0.24294E+02</wgt>
<wgt id='13024'>0.24635E+02</wgt>
<wgt id='13025'>0.24090E+02</wgt>
<wgt id='13026'>0.24776E+02</wgt>
<wgt id='13027'>0.24337E+02</wgt>
<wgt id='13028'>0.24632E+02</wgt>
<wgt id='13050'>0.24471E+02</wgt>
<wgt id='13051'>0.24501E+02</wgt>
<wgt id='13052'>0.24291E+02</wgt>
<wgt id='13053'>0.24476E+02</wgt>
<wgt id='13054'>0.24448E+02</wgt>
<wgt id='13055'>0.23938E+02</wgt>
<wgt id='13056'>0.24477E+02</wgt>
<wgt id='13057'>0.24396E+02</wgt>
<wgt id='13058'>0.24621E+02</wgt>
<wgt id='13059'>0.25000E+02</wgt>
<wgt id='13060'>0.23352E+02</wgt>
<wgt id='13061'>0.24418E+02</wgt>
<wgt id='13062'>0.24199E+02</wgt>
<wgt id='13063'>0.24614E+02</wgt>
<wgt id='14000'>0.24475E+02</wgt>
<wgt id='14001'>0.24473E+02</wgt>
<wgt id='14002'>0.24470E+02</wgt>
<wgt id='14003'>0.24468E+02</wgt>
<wgt id='14004'>0.24466E+02</wgt>
<wgt id='14005'>0.24464E+02</wgt>
<wgt id='14006'>0.24462E+02</wgt>
<wgt id='14007'>0.24460E+02</wgt>
<wgt id='14008'>0.24457E+02</wgt>
<wgt id='14009'>0.24455E+02</wgt>
<wgt id='14010'>0.24453E+02</wgt>
<wgt id='14011'>0.24451E+02</wgt>
<wgt id='14012'>0.24449E+02</wgt>
<wgt id='14013'>0.24446E+02</wgt>
<wgt id='14014'>0.24444E+02</wgt>
<wgt id='14015'>0.24442E+02</wgt>
<wgt id='14016'>0.24440E+02</wgt>
<wgt id='14017'>0.24438E+02</wgt>
<wgt id='14018'>0.24435E+02</wgt>
<wgt id='14019'>0.24433E+02</wgt>
<wgt id='14020'>0.24431E+02</wgt>
<wgt id='14021'>0.24429E+02</wgt>
<wgt id='14022'>0.24427E+02</wgt>
<wgt id='14023'>0.24425E+02</wgt>
<wgt id='14024'>0.24422E+02</wgt>
<wgt id='14025'>0.24420E+02</wgt>
<wgt id='14026'>0.24418E+02</wgt>
<wgt id='14027'>0.24416E+02</wgt>
<wgt id='14028'>0.24414E+02</wgt>
<wgt id='14029'>0.24411E+02</wgt>
<wgt id='14030'>0.24409E+02</wgt>
<wgt id='15000'>0.24859E+02</wgt>
<wgt id='15001'>0.24736E+02</wgt>
<wgt id='15002'>0.24899E+02</wgt>
<wgt id='15003'>0.24737E+02</wgt>
<wgt id='15004'>0.24861E+02</wgt>
<wgt id='15005'>0.24963E+02</wgt>
<wgt id='15006'>0.24987E+02</wgt>
<wgt id='15007'>0.24951E+02</wgt>
<wgt id='15008'>0.24893E+02</wgt>
<wgt id='15009'>0.24871E+02</wgt>
<wgt id='15010'>0.24730E+02</wgt>
<wgt id='15011'>0.25202E+02</wgt>
<wgt id='15012'>0.24898E+02</wgt>
<wgt id='15013'>0.24768E+02</wgt>
<wgt id='15014'>0.24820E+02</wgt>
<wgt id='15015'>0.24596E+02</wgt>
<wgt id='15016'>0.25232E+02</wgt>
<wgt id='15017'>0.24590E+02</wgt>
<wgt id='15018'>0.24841E+02</wgt>
<wgt id='15019'>0.24991E+02</wgt>
<wgt id='15020'>0.25234E+02</wgt>
<wgt id='15021'>0.24795E+02</wgt>
<wgt id='15022'>0.24915E+02</wgt>
<wgt id='15023'>0.24706E+02</wgt>
<wgt id='15024'>0.24702E+02</wgt>
<wgt id='15025'>0.24842E+02</wgt>
<wgt id='15026'>0.24768E+02</wgt>
<wgt id='15027'>0.24927E+02</wgt>
<wgt id='15028'>0.24939E+02</wgt>
<wgt id='15029'>0.24845E+02</wgt>
<wgt id='15030'>0.24846E+02</wgt>
<wgt id='15031'>0.24935E+02</wgt>
<wgt id='15032'>0.24846E+02</wgt>
<wgt id='15033'>0.24865E+02</wgt>
<wgt id='15034'>0.24863E+02</wgt>
<wgt id='15035'>0.24883E+02</wgt>
<wgt id='15036'>0.24868E+02</wgt>
<wgt id='15037'>0.24891E+02</wgt>
<wgt id='15038'>0.24861E+02</wgt>
<wgt id='15039'>0.24828E+02</wgt>
<wgt id='15040'>0.24824E+02</wgt>
<wgt id='15041'>0.24831E+02</wgt>
<wgt id='15042'>0.24850E+02</wgt>
<wgt id='15043'>0.24872E+02</wgt>
<wgt id='15044'>0.24856E+02</wgt>
<wgt id='15045'>0.24847E+02</wgt>
<wgt id='15046'>0.24846E+02</wgt>
<wgt id='15047'>0.24839E+02</wgt>
<wgt id='15048'>0.24888E+02</wgt>
<wgt id='15049'>0.24838E+02</wgt>
<wgt id='15050'>0.24870E+02</wgt>
<wgt id='15051'>0.24865E+02</wgt>
<wgt id='15052'>0.24870E+02</wgt>
<wgt id='15053'>0.24866E+02</wgt>
<wgt id='15054'>0.24857E+02</wgt>
<wgt id='15055'>0.24860E+02</wgt>
<wgt id='15056'>0.24848E+02</wgt>
<wgt id='15057'>0.24858E+02</wgt>
<wgt id='15058'>0.24866E+02</wgt>
<wgt id='15059'>0.24863E+02</wgt>
<wgt id='15060'>0.24870E+02</wgt>
<wgt id='15061'>0.24867E+02</wgt>
<wgt id='15062'>0.24858E+02</wgt>
<wgt id='15063'>0.24854E+02</wgt>
<wgt id='15064'>0.24870E+02</wgt>
<wgt id='15065'>0.24852E+02</wgt>
<wgt id='15066'>0.24853E+02</wgt>
<wgt id='15067'>0.24852E+02</wgt>
<wgt id='15068'>0.24864E+02</wgt>
<wgt id='15069'>0.24860E+02</wgt>
<wgt id='15070'>0.24852E+02</wgt>
<wgt id='15071'>0.24881E+02</wgt>
<wgt id='15072'>0.24865E+02</wgt>
<wgt id='15073'>0.24846E+02</wgt>
<wgt id='15074'>0.24863E+02</wgt>
<wgt id='15075'>0.24860E+02</wgt>
<wgt id='15076'>0.24877E+02</wgt>
<wgt id='15077'>0.24867E+02</wgt>
<wgt id='15078'>0.24874E+02</wgt>
<wgt id='15079'>0.24857E+02</wgt>
<wgt id='15080'>0.24859E+02</wgt>
<wgt id='15081'>0.24876E+02</wgt>
<wgt id='15082'>0.24870E+02</wgt>
<wgt id='15083'>0.24853E+02</wgt>
<wgt id='15084'>0.24846E+02</wgt>
<wgt id='15085'>0.24856E+02</wgt>
<wgt id='15086'>0.24880E+02</wgt>
<wgt id='15087'>0.24838E+02</wgt>
<wgt id='15088'>0.24844E+02</wgt>
<wgt id='15089'>0.24844E+02</wgt>
<wgt id='15090'>0.24858E+02</wgt>
<wgt id='15091'>0.24846E+02</wgt>
<wgt id='15092'>0.24848E+02</wgt>
<wgt id='15093'>0.24858E+02</wgt>
<wgt id='15094'>0.24843E+02</wgt>
<wgt id='15095'>0.24862E+02</wgt>
<wgt id='15096'>0.24860E+02</wgt>
<wgt id='15097'>0.24864E+02</wgt>
<wgt id='15098'>0.24855E+02</wgt>
<wgt id='15099'>0.24859E+02</wgt>
<wgt id='15100'>0.24862E+02</wgt>
<wgt id='15101'>0.24859E+02</wgt>
<wgt id='15102'>0.24858E+02</wgt>
<wgt id='15103'>0.24860E+02</wgt>
<wgt id='15104'>0.24860E+02</wgt>
<wgt id='15105'>0.24860E+02</wgt>
<wgt id='15106'>0.24859E+02</wgt>
<wgt id='15107'>0.24858E+02</wgt>
<wgt id='1500'>0.25597E+02</wgt>
<wgt id='1501'>0.24799E+02</wgt>
<wgt id='1502'>0.25974E+02</wgt>
<wgt id='1503'>0.26188E+02</wgt>
<wgt id='1504'>0.24657E+02</wgt>
<wgt id='1505'>0.24472E+02</wgt>
<wgt id='1506'>0.25973E+02</wgt>
<wgt id='1507'>0.25710E+02</wgt>
<wgt id='1508'>0.25594E+02</wgt>
<wgt id='1509'>0.26014E+02</wgt>
<wgt id='1510'>0.25346E+02</wgt>
<wgt id='1511'>0.24698E+02</wgt>
<wgt id='1512'>0.25946E+02</wgt>
<wgt id='1513'>0.25429E+02</wgt>
<wgt id='1514'>0.25720E+02</wgt>
<wgt id='1515'>0.26356E+02</wgt>
<wgt id='1516'>0.26143E+02</wgt>
<wgt id='1517'>0.25852E+02</wgt>
<wgt id='1518'>0.25862E+02</wgt>
<wgt id='1519'>0.25719E+02</wgt>
<wgt id='1520'>0.26695E+02</wgt>
<wgt id='1521'>0.25596E+02</wgt>
<wgt id='1522'>0.25457E+02</wgt>
<wgt id='1523'>0.26952E+02</wgt>
<wgt id='1524'>0.25443E+02</wgt>
<wgt id='1525'>0.25457E+02</wgt>
<wgt id='1526'>0.25294E+02</wgt>
<wgt id='1527'>0.25844E+02</wgt>
<wgt id='1528'>0.25367E+02</wgt>
<wgt id='1529'>0.26266E+02</wgt>
<wgt id='1530'>0.26464E+02</wgt>
<wgt id='1531'>0.25244E+02</wgt>
<wgt id='1532'>0.24871E+02</wgt>
<wgt id='1533'>0.25107E+02</wgt>
<wgt id='1534'>0.25517E+02</wgt>
<wgt id='1535'>0.26373E+02</wgt>
<wgt id='1536'>0.25393E+02</wgt>
<wgt id='1537'>0.26217E+02</wgt>
<wgt id='1538'>0.25435E+02</wgt>
<wgt id='1539'>0.25102E+02</wgt>
<wgt id='1540'>0.25296E+02</wgt>
<wgt id='1541'>0.25415E+02</wgt>
<wgt id='1542'>0.25477E+02</wgt>
<wgt id='1543'>0.25272E+02</wgt>
<wgt id='1544'>0.25724E+02</wgt>
<wgt id='1545'>0.25781E+02</wgt>
<wgt id='1546'>0.25868E+02</wgt>
<wgt id='1547'>0.25275E+02</wgt>
<wgt id='1548'>0.25410E+02</wgt>
<wgt id='1549'>0.25638E+02</wgt>
<wgt id='1550'>0.25352E+02</wgt>
<wgt id='1551'>0.25354E+02</wgt>
<wgt id='1552'>0.25417E+02</wgt>
<wgt id='1553'>0.25958E+02</wgt>
<wgt id='1554'>0.25079E+02</wgt>
<wgt id='1555'>0.25020E+02</wgt>
<wgt id='1556'>0.25598E+02</wgt>
<wgt id='1557'>0.25696E+02</wgt>
<wgt id='1558'>0.25195E+02</wgt>
<wgt id='1559'>0.26622E+02</wgt>
<wgt id='1560'>0.25376E+02</wgt>
<wgt id='1561'>0.25479E+02</wgt>
<wgt id='1562'>0.26141E+02</wgt>
<wgt id='1563'>0.24929E+02</wgt>
<wgt id='1564'>0.25745E+02</wgt>
<wgt id='1565'>0.25234E+02</wgt>
<wgt id='1566'>0.25640E+02</wgt>
<wgt id='1567'>0.27332E+02</wgt>
<wgt id='1568'>0.25388E+02</wgt>
<wgt id='1569'>0.24654E+02</wgt>
<wgt id='1570'>0.24974E+02</wgt>
<wgt id='1571'>0.25287E+02</wgt>
<wgt id='1572'>0.25731E+02</wgt>
<wgt id='1573'>0.24625E+02</wgt>
<wgt id='1574'>0.25898E+02</wgt>
<wgt id='1575'>0.25388E+02</wgt>
<wgt id='1576'>0.24880E+02</wgt>
<wgt id='1577'>0.25415E+02</wgt>
<wgt id='1578'>0.25860E+02</wgt>
<wgt id='1579'>0.25301E+02</wgt>
<wgt id='1580'>0.25402E+02</wgt>
<wgt id='1581'>0.25669E+02</wgt>
<wgt id='1582'>0.24902E+02</wgt>
<wgt id='1583'>0.26424E+02</wgt>
<wgt id='1584'>0.25433E+02</wgt>
<wgt id='1585'>0.25459E+02</wgt>
<wgt id='1586'>0.25410E+02</wgt>
<wgt id='1587'>0.25953E+02</wgt>
<wgt id='1588'>0.25521E+02</wgt>
<wgt id='1589'>0.26416E+02</wgt>
<wgt id='1590'>0.25334E+02</wgt>
<wgt id='1591'>0.24962E+02</wgt>
<wgt id='1592'>0.25388E+02</wgt>
<wgt id='1593'>0.25771E+02</wgt>
<wgt id='1594'>0.26446E+02</wgt>
<wgt id='1595'>0.25715E+02</wgt>
<wgt id='1596'>0.25698E+02</wgt>
<wgt id='1597'>0.25534E+02</wgt>
<wgt id='1598'>0.25717E+02</wgt>
<wgt id='1599'>0.25752E+02</wgt>
<wgt id='1600'>0.26510E+02</wgt>
<wgt id='1601'>0.24683E+02</wgt>
<wgt id='1602'>0.26278E+02</wgt>
<wgt id='1700'>0.25853E+02</wgt>
<wgt id='1800'>0.24364E+02</wgt>
<wgt id='1850'>0.34013E+02</wgt>
<wgt id='1900'>0.26109E+02</wgt>
<wgt id='1950'>0.34839E+02</wgt>
</rwgt>
</event>
<event>
      4   9999  2.16956E+01  7.53371E+01 -1.00000E+00  1.27884E-01
      21    -1     0     0   511   501  0.000000000E+00  0.000000000E+00  8.978306392E+02  8.978306392E+02  0.000000000E+00  0.00000E+00  9.000E+00
      21    -1     0     0   501   502  0.000000000E+00  0.000000000E+00 -2.048569647E+01  2.048569647E+01  0.000000000E+00  0.00000E+00  9.000E+00
      25     1     1     2     0     0  4.666744509E+01  5.914245483E+01  2.754690086E+02  3.117437345E+02  1.250012036E+02  0.00000E+00  9.000E+00
      21     1     1     2   511   502 -4.666744509E+01 -5.914245483E+01  6.018759341E+02  6.065726011E+02  0.000000000E+00  0.00000E+00  9.000E+00
#rwgt            1           1   18.221052585601708                1        3279           0
<rwgt>
<wgt id='1001'>0.21696E+02</wgt>
<wgt id='1002'>0.24016E+02</wgt>
<wgt id='1003'>0.19148E+02</wgt>
<wgt id='1004'>0.17246E+02</wgt>
<wgt id='1005'>0.19030E+02</wgt>
<wgt id='1006'>0.15274E+02</wgt>
<wgt id='1007'>0.28064E+02</wgt>
<wgt id='1008'>0.31174E+02</wgt>
<wgt id='1009'>0.24671E+02</wgt>
<wgt id='2000'>0.21696E+02</wgt>
<wgt id='2001'>0.21662E+02</wgt>
<wgt id='2002'>0.21751E+02</wgt>
<wgt id='2003'>0.21732E+02</wgt>
<wgt id='2004'>0.21705E+02</wgt>
<wgt id='2005'>0.21679E+02</wgt>
<wgt id='2006'>0.21670E+02</wgt>
<wgt id='2007'>0.21663E+02</wgt>
<wgt id='2008'>0.21709E+02</wgt>
<wgt id='2009'>0.21686E+02</wgt>
<wgt id='2010'>0.21671E+02</wgt>
<wgt id='2011'>0.21756E+02</wgt>
<wgt id='2012'>0.21764E+02</wgt>
<wgt id='2013'>0.21768E+02</wgt>
<wgt id='2014'>0.21751E+02</wgt>
<wgt id='2015'>0.21739E+02</wgt>
<wgt id='2016'>0.21702E+02</wgt>
<wgt id='2017'>0.21693E+02</wgt>
<wgt id='2018'>0.21744E+02</wgt>
<wgt id='2019'>0.21690E+02</wgt>
<wgt id='2020'>0.21780E+02</wgt>
<wgt id='2021'>0.21654E+02</wgt>
<wgt id='2022'>0.21767E+02</wgt>
<wgt id='2023'>0.21741E+02</wgt>
<wgt id='2024'>0.21698E+02</wgt>
<wgt id='2025'>0.21771E+02</wgt>
<wgt id='2026'>0.21745E+02</wgt>
<wgt id='2027'>0.21672E+02</wgt>
<wgt id='2028'>0.21665E+02</wgt>
<wgt id='2029'>0.21713E+02</wgt>
<wgt id='2030'>0.21705E+02</wgt>
<wgt id='2031'>0.21712E+02</wgt>
<wgt id='2032'>0.21690E+02</wgt>
<wgt id='2033'>0.21700E+02</wgt>
<wgt id='2034'>0.21706E+02</wgt>
<wgt id='2035'>0.21693E+02</wgt>
<wgt id='2036'>0.21701E+02</wgt>
<wgt id='2037'>0.21701E+02</wgt>
<wgt id='2038'>0.21701E+02</wgt>
<wgt id='2039'>0.21693E+02</wgt>
<wgt id='2040'>0.21698E+02</wgt>
<wgt id='2041'>0.21692E+02</wgt>
<wgt id='2042'>0.21676E+02</wgt>
<wgt id='2043'>0.21708E+02</wgt>
<wgt id='2044'>0.21707E+02</wgt>
<wgt id='2045'>0.21695E+02</wgt>
<wgt id='2046'>0.21705E+02</wgt>
<wgt id='2047'>0.21706E+02</wgt>
<wgt id='2048'>0.21696E+02</wgt>
<wgt id='2049'>0.21695E+02</wgt>
<wgt id='2050'>0.21706E+02</wgt>
<wgt id='2051'>0.21700E+02</wgt>
<wgt id='2052'>0.21686E+02</wgt>
<wgt id='2053'>0.21691E+02</wgt>
<wgt id='2054'>0.21697E+02</wgt>
<wgt id='2055'>0.21697E+02</wgt>
<wgt id='2056'>0.21696E+02</wgt>
<wgt id='2057'>0.21692E+02</wgt>
<wgt id='2058'>0.21699E+02</wgt>
<wgt id='2059'>0.21693E+02</wgt>
<wgt id='2060'>0.21696E+02</wgt>
<wgt id='2061'>0.21694E+02</wgt>
<wgt id='2062'>0.21699E+02</wgt>
<wgt id='2063'>0.21694E+02</wgt>
<wgt id='2064'>0.21693E+02</wgt>
<wgt id='2065'>0.21697E+02</wgt>
<wgt id='2066'>0.21694E+02</wgt>
<wgt id='2067'>0.21694E+02</wgt>
<wgt id='2068'>0.21697E+02</wgt>
<wgt id='2069'>0.21691E+02</wgt>
<wgt id='2070'>0.21689E+02</wgt>
<wgt id='2071'>0.21686E+02</wgt>
<wgt id='2072'>0.21695E+02</wgt>
<wgt id='2073'>0.21695E+02</wgt>
<wgt id='2074'>0.21685E+02</wgt>
<wgt id='2075'>0.21698E+02</wgt>
<wgt id='2076'>0.21691E+02</wgt>
<wgt id='2077'>0.21694E+02</wgt>
<wgt id='2078'>0.21698E+02</wgt>
<wgt id='2079'>0.21696E+02</wgt>
<wgt id='2080'>0.21697E+02</wgt>
<wgt id='2081'>0.21698E+02</wgt>
<wgt id='2082'>0.21696E+02</wgt>
<wgt id='2083'>0.21697E+02</wgt>
<wgt id='2084'>0.21698E+02</wgt>
<wgt id='2085'>0.21696E+02</wgt>
<wgt id='2086'>0.21695E+02</wgt>
<wgt id='2087'>0.21695E+02</wgt>
<wgt id='2088'>0.21697E+02</wgt>
<wgt id='2089'>0.21695E+02</wgt>
<wgt id='2090'>0.21696E+02</wgt>
<wgt id='2091'>0.21696E+02</wgt>
<wgt id='2092'>0.21699E+02</wgt>
<wgt id='2093'>0.21694E+02</wgt>
<wgt id='2094'>0.21699E+02</wgt>
<wgt id='2095'>0.21696E+02</wgt>
<wgt id='2096'>0.21695E+02</wgt>
<wgt id='2097'>0.21697E+02</wgt>
<wgt id='2098'>0.21695E+02</wgt>
<wgt id='2099'>0.21695E+02</wgt>
<wgt id='2100'>0.21696E+02</wgt>
<wgt id='2101'>0.21028E+02</wgt>
<wgt id='2102'>0.22316E+02</wgt>
<wgt id='2104'>0.18615E+02</wgt>
<wgt id='2105'>0.19185E+02</wgt>
<wgt id='2106'>0.19801E+02</wgt>
<wgt id='2107'>0.20451E+02</wgt>
<wgt id='2108'>0.21396E+02</wgt>
<wgt id='2109'>0.22049E+02</wgt>
<wgt id='2110'>0.22903E+02</wgt>
<wgt id='2111'>0.23545E+02</wgt>
<wgt id='3000'>0.22778E+02</wgt>
<wgt id='3001'>0.22834E+02</wgt>
<wgt id='3002'>0.22717E+02</wgt>
<wgt id='3003'>0.22821E+02</wgt>
<wgt id='3004'>0.22806E+02</wgt>
<wgt id='3005'>0.22826E+02</wgt>
<wgt id='3006'>0.22790E+02</wgt>
<wgt id='3007'>0.22777E+02</wgt>
<wgt id='3008'>0.22744E+02</wgt>
<wgt id='3009'>0.22714E+02</wgt>
<wgt id='3010'>0.22725E+02</wgt>
<wgt id='3011'>0.22813E+02</wgt>
<wgt id='3012'>0.22872E+02</wgt>
<wgt id='3013'>0.22693E+02</wgt>
<wgt id='3014'>0.22818E+02</wgt>
<wgt id='3015'>0.22790E+02</wgt>
<wgt id='3016'>0.22793E+02</wgt>
<wgt id='3017'>0.22825E+02</wgt>
<wgt id='3018'>0.22824E+02</wgt>
<wgt id='3019'>0.22714E+02</wgt>
<wgt id='3020'>0.22713E+02</wgt>
<wgt id='3021'>0.22694E+02</wgt>
<wgt id='3022'>0.22771E+02</wgt>
<wgt id='3023'>0.22725E+02</wgt>
<wgt id='3024'>0.22715E+02</wgt>
<wgt id='3025'>0.22775E+02</wgt>
<wgt id='3026'>0.22821E+02</wgt>
<wgt id='3027'>0.22784E+02</wgt>
<wgt id='3028'>0.22713E+02</wgt>
<wgt id='3029'>0.22769E+02</wgt>
<wgt id='3030'>0.22799E+02</wgt>
<wgt id='3031'>0.22787E+02</wgt>
<wgt id='3032'>0.22792E+02</wgt>
<wgt id='3033'>0.22789E+02</wgt>
<wgt id='3034'>0.22789E+02</wgt>
<wgt id='3035'>0.22790E+02</wgt>
<wgt id='3036'>0.22782E+02</wgt>
<wgt id='3037'>0.22779E+02</wgt>
<wgt id='3038'>0.22778E+02</wgt>
<wgt id='3039'>0.22780E+02</wgt>
<wgt id='3040'>0.22778E+02</wgt>
<wgt id='3041'>0.22776E+02</wgt>
<wgt id='3042'>0.22761E+02</wgt>
<wgt id='3043'>0.22762E+02</wgt>
<wgt id='3044'>0.22786E+02</wgt>
<wgt id='3045'>0.22790E+02</wgt>
<wgt id='3046'>0.22785E+02</wgt>
<wgt id='3047'>0.22772E+02</wgt>
<wgt id='3048'>0.22788E+02</wgt>
<wgt id='3049'>0.22773E+02</wgt>
<wgt id='3050'>0.22777E+02</wgt>
<wgt id='3051'>0.22796E+02</wgt>
<wgt id='3052'>0.22775E+02</wgt>
<wgt id='3053'>0.22775E+02</wgt>
<wgt id='3054'>0.22773E+02</wgt>
<wgt id='3055'>0.22782E+02</wgt>
<wgt id='3056'>0.22781E+02</wgt>
<wgt id='3057'>0.22772E+02</wgt>
<wgt id='3058'>0.22774E+02</wgt>
<wgt id='3059'>0.22778E+02</wgt>
<wgt id='3060'>0.22779E+02</wgt>
<wgt id='3061'>0.22785E+02</wgt>
<wgt id='3062'>0.22778E+02</wgt>
<wgt id='3063'>0.22781E+02</wgt>
<wgt id='3064'>0.22778E+02</wgt>
<wgt id='3065'>0.22782E+02</wgt>
<wgt id='3066'>0.22780E+02</wgt>
<wgt id='3067'>0.22772E+02</wgt>
<wgt id='3068'>0.22776E+02</wgt>
<wgt id='3069'>0.22771E+02</wgt>
<wgt id='3070'>0.22770E+02</wgt>
<wgt id='3071'>0.22778E+02</wgt>
<wgt id='3072'>0.22782E+02</wgt>
<wgt id='3073'>0.22779E+02</wgt>
<wgt id='3074'>0.22780E+02</wgt>
<wgt id='3075'>0.22781E+02</wgt>
<wgt id='3076'>0.22779E+02</wgt>
<wgt id='3077'>0.22776E+02</wgt>
<wgt id='3078'>0.22782E+02</wgt>
<wgt id='3079'>0.22777E+02</wgt>
<wgt id='3080'>0.22775E+02</wgt>
<wgt id='3081'>0.22777E+02</wgt>
<wgt id='3082'>0.22776E+02</wgt>
<wgt id='3083'>0.22776E+02</wgt>
<wgt id='3084'>0.22775E+02</wgt>
<wgt id='3085'>0.22778E+02</wgt>
<wgt id='3086'>0.22778E+02</wgt>
<wgt id='3087'>0.22776E+02</wgt>
<wgt id='3088'>0.22776E+02</wgt>
<wgt id='3089'>0.22777E+02</wgt>
<wgt id='3090'>0.22777E+02</wgt>
<wgt id='3091'>0.22778E+02</wgt>
<wgt id='3092'>0.22776E+02</wgt>
<wgt id='3093'>0.22777E+02</wgt>
<wgt id='3094'>0.22779E+02</wgt>
<wgt id='3095'>0.22778E+02</wgt>
<wgt id='3096'>0.22777E+02</wgt>
<wgt id='3097'>0.22775E+02</wgt>
<wgt id='3098'>0.22778E+02</wgt>
<wgt id='3099'>0.22779E+02</wgt>
<wgt id='3100'>0.22778E+02</wgt>
<wgt id='3101'>0.22085E+02</wgt>
<wgt id='3102'>0.23547E+02</wgt>
<wgt id='5000'>0.20969E+02</wgt>
<wgt id='5001'>0.20914E+02</wgt>
<wgt id='5002'>0.20925E+02</wgt>
<wgt id='5003'>0.20882E+02</wgt>
<wgt id='5004'>0.20973E+02</wgt>
<wgt id='5005'>0.20657E+02</wgt>
<wgt id='5006'>0.21082E+02</wgt>
<wgt id='5007'>0.20984E+02</wgt>
<wgt id='5008'>0.20827E+02</wgt>
<wgt id='5009'>0.21141E+02</wgt>
<wgt id='5010'>0.20870E+02</wgt>
<wgt id='5011'>0.20951E+02</wgt>
<wgt id='5012'>0.20942E+02</wgt>
<wgt id='5013'>0.20617E+02</wgt>
<wgt id='5014'>0.21026E+02</wgt>
<wgt id='5015'>0.21099E+02</wgt>
<wgt id='5016'>0.20562E+02</wgt>
<wgt id='5017'>0.20968E+02</wgt>
<wgt id='5018'>0.20972E+02</wgt>
<wgt id='5019'>0.20916E+02</wgt>
<wgt id='5020'>0.21020E+02</wgt>
<wgt id='5021'>0.21030E+02</wgt>
<wgt id='5022'>0.20929E+02</wgt>
<wgt id='5023'>0.20897E+02</wgt>
<wgt id='5024'>0.21043E+02</wgt>
<wgt id='5025'>0.20950E+02</wgt>
<wgt id='5026'>0.20984E+02</wgt>
<wgt id='5027'>0.21167E+02</wgt>
<wgt id='5028'>0.20634E+02</wgt>
<wgt id='5029'>0.20601E+02</wgt>
<wgt id='5030'>0.21190E+02</wgt>
<wgt id='5031'>0.20755E+02</wgt>
<wgt id='5032'>0.21276E+02</wgt>
<wgt id='5033'>0.20841E+02</wgt>
<wgt id='5034'>0.21076E+02</wgt>
<wgt id='5035'>0.20709E+02</wgt>
<wgt id='5036'>0.21183E+02</wgt>
<wgt id='5037'>0.20871E+02</wgt>
<wgt id='5038'>0.21069E+02</wgt>
<wgt id='5039'>0.21318E+02</wgt>
<wgt id='5040'>0.20791E+02</wgt>
<wgt id='5041'>0.20815E+02</wgt>
<wgt id='5042'>0.20978E+02</wgt>
<wgt id='5043'>0.21115E+02</wgt>
<wgt id='5044'>0.20510E+02</wgt>
<wgt id='5045'>0.21458E+02</wgt>
<wgt id='5046'>0.20825E+02</wgt>
<wgt id='5047'>0.21068E+02</wgt>
<wgt id='5048'>0.21088E+02</wgt>
<wgt id='5049'>0.20979E+02</wgt>
<wgt id='5050'>0.21009E+02</wgt>
<wgt id='5051'>0.21011E+02</wgt>
<wgt id='5052'>0.20961E+02</wgt>
<wgt id='5053'>0.20741E+02</wgt>
<wgt id='5054'>0.21157E+02</wgt>
<wgt id='5055'>0.20843E+02</wgt>
<wgt id='5056'>0.21130E+02</wgt>
<wgt id='5060'>0.20301E+02</wgt>
<wgt id='5070'>0.21598E+02</wgt>
<wgt id='4000'>0.22148E+02</wgt>
<wgt id='4001'>0.22166E+02</wgt>
<wgt id='4002'>0.22202E+02</wgt>
<wgt id='4003'>0.22405E+02</wgt>
<wgt id='4004'>0.22030E+02</wgt>
<wgt id='4005'>0.22214E+02</wgt>
<wgt id='4006'>0.22098E+02</wgt>
<wgt id='4007'>0.22319E+02</wgt>
<wgt id='4008'>0.22090E+02</wgt>
<wgt id='4009'>0.21782E+02</wgt>
<wgt id='4010'>0.22363E+02</wgt>
<wgt id='4011'>0.22452E+02</wgt>
<wgt id='4012'>0.21972E+02</wgt>
<wgt id='4013'>0.21437E+02</wgt>
<wgt id='4014'>0.22551E+02</wgt>
<wgt id='4015'>0.22379E+02</wgt>
<wgt id='4016'>0.21999E+02</wgt>
<wgt id='4017'>0.21907E+02</wgt>
<wgt id='4018'>0.22434E+02</wgt>
<wgt id='4019'>0.22400E+02</wgt>
<wgt id='4020'>0.21867E+02</wgt>
<wgt id='4021'>0.22190E+02</wgt>
<wgt id='4022'>0.22055E+02</wgt>
<wgt id='4023'>0.22060E+02</wgt>
<wgt id='4024'>0.22225E+02</wgt>
<wgt id='4025'>0.21945E+02</wgt>
<wgt id='4026'>0.22333E+02</wgt>
<wgt id='4027'>0.22085E+02</wgt>
<wgt id='4028'>0.22233E+02</wgt>
<wgt id='4029'>0.22005E+02</wgt>
<wgt id='4030'>0.22198E+02</wgt>
<wgt id='4031'>0.22182E+02</wgt>
<wgt id='4032'>0.22105E+02</wgt>
<wgt id='4033'>0.22121E+02</wgt>
<wgt id='4034'>0.22207E+02</wgt>
<wgt id='4035'>0.22405E+02</wgt>
<wgt id='4036'>0.21903E+02</wgt>
<wgt id='4037'>0.22285E+02</wgt>
<wgt id='4038'>0.21911E+02</wgt>
<wgt id='4039'>0.22123E+02</wgt>
<wgt id='4040'>0.22135E+02</wgt>
<wgt id='4041'>0.22294E+02</wgt>
<wgt id='4042'>0.22017E+02</wgt>
<wgt id='4043'>0.22281E+02</wgt>
<wgt id='4044'>0.22031E+02</wgt>
<wgt id='4045'>0.21865E+02</wgt>
<wgt id='4046'>0.22108E+02</wgt>
<wgt id='4047'>0.21977E+02</wgt>
<wgt id='4048'>0.22187E+02</wgt>
<wgt id='4049'>0.22082E+02</wgt>
<wgt id='4050'>0.21909E+02</wgt>
<wgt id='4051'>0.22103E+02</wgt>
<wgt id='4052'>0.22113E+02</wgt>
<wgt id='4053'>0.21566E+02</wgt>
<wgt id='4054'>0.22204E+02</wgt>
<wgt id='4055'>0.22007E+02</wgt>
<wgt id='4056'>0.22322E+02</wgt>
<wgt id='4060'>0.21379E+02</wgt>
<wgt id='4070'>0.22893E+02</wgt>
<wgt id='4080'>0.22489E+02</wgt>
<wgt id='6000'>0.22420E+02</wgt>
<wgt id='6001'>0.22439E+02</wgt>
<wgt id='6002'>0.22399E+02</wgt>
<wgt id='6003'>0.22431E+02</wgt>
<wgt id='6004'>0.22412E+02</wgt>
<wgt id='6005'>0.22464E+02</wgt>
<wgt id='6006'>0.22379E+02</wgt>
<wgt id='6007'>0.22335E+02</wgt>
<wgt id='6008'>0.22514E+02</wgt>
<wgt id='6009'>0.22502E+02</wgt>
<wgt id='6010'>0.22339E+02</wgt>
<wgt id='6011'>0.22470E+02</wgt>
<wgt id='6012'>0.22313E+02</wgt>
<wgt id='6013'>0.22395E+02</wgt>
<wgt id='6014'>0.22466E+02</wgt>
<wgt id='6015'>0.22354E+02</wgt>
<wgt id='6016'>0.22457E+02</wgt>
<wgt id='6017'>0.22289E+02</wgt>
<wgt id='6018'>0.22575E+02</wgt>
<wgt id='6019'>0.22440E+02</wgt>
<wgt id='6020'>0.22402E+02</wgt>
<wgt id='6021'>0.22372E+02</wgt>
<wgt id='6022'>0.22484E+02</wgt>
<wgt id='6023'>0.22266E+02</wgt>
<wgt id='6024'>0.22529E+02</wgt>
<wgt id='6025'>0.22280E+02</wgt>
<wgt id='6026'>0.22501E+02</wgt>
<wgt id='6027'>0.22482E+02</wgt>
<wgt id='6028'>0.22419E+02</wgt>
<wgt id='6029'>0.22518E+02</wgt>
<wgt id='6030'>0.22305E+02</wgt>
<wgt id='6031'>0.22420E+02</wgt>
<wgt id='6032'>0.22410E+02</wgt>
<wgt id='6033'>0.22465E+02</wgt>
<wgt id='6034'>0.22373E+02</wgt>
<wgt id='6035'>0.22417E+02</wgt>
<wgt id='6036'>0.22468E+02</wgt>
<wgt id='6037'>0.22459E+02</wgt>
<wgt id='6038'>0.22419E+02</wgt>
<wgt id='6039'>0.22392E+02</wgt>
<wgt id='6040'>0.22450E+02</wgt>
<wgt id='6041'>0.22377E+02</wgt>
<wgt id='6042'>0.22473E+02</wgt>
<wgt id='6043'>0.22711E+02</wgt>
<wgt id='6044'>0.22295E+02</wgt>
<wgt id='6045'>0.22403E+02</wgt>
<wgt id='6046'>0.22465E+02</wgt>
<wgt id='6047'>0.22478E+02</wgt>
<wgt id='6048'>0.22212E+02</wgt>
<wgt id='6049'>0.22450E+02</wgt>
<wgt id='6050'>0.22395E+02</wgt>
<wgt id='7000'>0.21004E+02</wgt>
<wgt id='7001'>0.21010E+02</wgt>
<wgt id='7002'>0.20997E+02</wgt>
<wgt id='7003'>0.21065E+02</wgt>
<wgt id='7004'>0.20944E+02</wgt>
<wgt id='7005'>0.21042E+02</wgt>
<wgt id='7006'>0.20989E+02</wgt>
<wgt id='7007'>0.20921E+02</wgt>
<wgt id='7008'>0.21087E+02</wgt>
<wgt id='7009'>0.21044E+02</wgt>
<wgt id='7010'>0.20965E+02</wgt>
<wgt id='7011'>0.20796E+02</wgt>
<wgt id='7012'>0.21095E+02</wgt>
<wgt id='7013'>0.21004E+02</wgt>
<wgt id='7014'>0.21004E+02</wgt>
<wgt id='7015'>0.20942E+02</wgt>
<wgt id='7016'>0.21071E+02</wgt>
<wgt id='7017'>0.20908E+02</wgt>
<wgt id='7018'>0.21055E+02</wgt>
<wgt id='7019'>0.20980E+02</wgt>
<wgt id='7020'>0.21038E+02</wgt>
<wgt id='7021'>0.20999E+02</wgt>
<wgt id='7022'>0.21007E+02</wgt>
<wgt id='7023'>0.21177E+02</wgt>
<wgt id='7024'>0.20828E+02</wgt>
<wgt id='7025'>0.21078E+02</wgt>
<wgt id='7026'>0.20823E+02</wgt>
<wgt id='7027'>0.21088E+02</wgt>
<wgt id='7028'>0.20975E+02</wgt>
<wgt id='7029'>0.20938E+02</wgt>
<wgt id='7030'>0.21164E+02</wgt>
<wgt id='7031'>0.20994E+02</wgt>
<wgt id='7032'>0.21029E+02</wgt>
<wgt id='7033'>0.20987E+02</wgt>
<wgt id='7034'>0.21051E+02</wgt>
<wgt id='7035'>0.21033E+02</wgt>
<wgt id='7036'>0.21002E+02</wgt>
<wgt id='7037'>0.21011E+02</wgt>
<wgt id='7038'>0.21013E+02</wgt>
<wgt id='7039'>0.20975E+02</wgt>
<wgt id='7040'>0.21025E+02</wgt>
<wgt id='7041'>0.20967E+02</wgt>
<wgt id='7042'>0.21038E+02</wgt>
<wgt id='7043'>0.21021E+02</wgt>
<wgt id='7044'>0.20908E+02</wgt>
<wgt id='7045'>0.20830E+02</wgt>
<wgt id='7046'>0.21088E+02</wgt>
<wgt id='7047'>0.21044E+02</wgt>
<wgt id='7048'>0.20982E+02</wgt>
<wgt id='7049'>0.20967E+02</wgt>
<wgt id='7050'>0.21005E+02</wgt>
<wgt id='7060'>0.34589E+02</wgt>
<wgt id='8000'>0.21338E+02</wgt>
<wgt id='8001'>0.21332E+02</wgt>
<wgt id='8002'>0.21344E+02</wgt>
<wgt id='8003'>0.21340E+02</wgt>
<wgt id='8004'>0.21337E+02</wgt>
<wgt id='8005'>0.21287E+02</wgt>
<wgt id='8006'>0.21327E+02</wgt>
<wgt id='8007'>0.21315E+02</wgt>
<wgt id='8008'>0.21376E+02</wgt>
<wgt id='8009'>0.21417E+02</wgt>
<wgt id='8010'>0.21337E+02</wgt>
<wgt id='8011'>0.21328E+02</wgt>
<wgt id='8012'>0.21311E+02</wgt>
<wgt id='8013'>0.21329E+02</wgt>
<wgt id='8014'>0.21332E+02</wgt>
<wgt id='8015'>0.21321E+02</wgt>
<wgt id='8016'>0.21347E+02</wgt>
<wgt id='8017'>0.21339E+02</wgt>
<wgt id='8018'>0.21343E+02</wgt>
<wgt id='8019'>0.21367E+02</wgt>
<wgt id='8020'>0.21280E+02</wgt>
<wgt id='8021'>0.21338E+02</wgt>
<wgt id='8022'>0.21232E+02</wgt>
<wgt id='8023'>0.21353E+02</wgt>
<wgt id='8024'>0.21366E+02</wgt>
<wgt id='8025'>0.21396E+02</wgt>
<wgt id='8026'>0.21378E+02</wgt>
<wgt id='8027'>0.21308E+02</wgt>
<wgt id='8028'>0.21359E+02</wgt>
<wgt id='8029'>0.21194E+02</wgt>
<wgt id='8500'>0.22379E+02</wgt>
<wgt id='8501'>0.22305E+02</wgt>
<wgt id='8502'>0.22502E+02</wgt>
<wgt id='8503'>0.22485E+02</wgt>
<wgt id='8504'>0.22336E+02</wgt>
<wgt id='8505'>0.22342E+02</wgt>
<wgt id='8506'>0.22344E+02</wgt>
<wgt id='8507'>0.22467E+02</wgt>
<wgt id='8508'>0.22536E+02</wgt>
<wgt id='8509'>0.22329E+02</wgt>
<wgt id='8510'>0.22666E+02</wgt>
<wgt id='8511'>0.22389E+02</wgt>
<wgt id='8512'>0.22180E+02</wgt>
<wgt id='8513'>0.22407E+02</wgt>
<wgt id='8514'>0.22195E+02</wgt>
<wgt id='8515'>0.22423E+02</wgt>
<wgt id='8516'>0.22418E+02</wgt>
<wgt id='8517'>0.22291E+02</wgt>
<wgt id='8518'>0.22321E+02</wgt>
<wgt id='8519'>0.22325E+02</wgt>
<wgt id='8520'>0.22380E+02</wgt>
<wgt id='8521'>0.22267E+02</wgt>
<wgt id='8522'>0.22403E+02</wgt>
<wgt id='8523'>0.22327E+02</wgt>
<wgt id='8524'>0.22367E+02</wgt>
<wgt id='8525'>0.22360E+02</wgt>
<wgt id='8526'>0.22351E+02</wgt>
<wgt id='8527'>0.22385E+02</wgt>
<wgt id='8528'>0.22321E+02</wgt>
<wgt id='8529'>0.22358E+02</wgt>
<wgt id='8530'>0.22372E+02</wgt>
<wgt id='8531'>0.22371E+02</wgt>
<wgt id='8532'>0.22381E+02</wgt>
<wgt id='8533'>0.22335E+02</wgt>
<wgt id='8534'>0.22385E+02</wgt>
<wgt id='8535'>0.22429E+02</wgt>
<wgt id='8536'>0.22362E+02</wgt>
<wgt id='8537'>0.22386E+02</wgt>
<wgt id='8538'>0.22361E+02</wgt>
<wgt id='8539'>0.22383E+02</wgt>
<wgt id='8540'>0.22380E+02</wgt>
<wgt id='8541'>0.22388E+02</wgt>
<wgt id='8542'>0.22393E+02</wgt>
<wgt id='8543'>0.22360E+02</wgt>
<wgt id='8544'>0.22397E+02</wgt>
<wgt id='8545'>0.22395E+02</wgt>
<wgt id='8546'>0.22402E+02</wgt>
<wgt id='8547'>0.22363E+02</wgt>
<wgt id='8548'>0.22358E+02</wgt>
<wgt id='8549'>0.22378E+02</wgt>
<wgt id='8550'>0.22380E+02</wgt>
<wgt id='8551'>0.22357E+02</wgt>
<wgt id='8552'>0.22381E+02</wgt>
<wgt id='8553'>0.22368E+02</wgt>
<wgt id='8554'>0.22370E+02</wgt>
<wgt id='8555'>0.22380E+02</wgt>
<wgt id='8556'>0.22377E+02</wgt>
<wgt id='8557'>0.22373E+02</wgt>
<wgt id='8558'>0.22402E+02</wgt>
<wgt id='8559'>0.22367E+02</wgt>
<wgt id='8560'>0.22354E+02</wgt>
<wgt id='8561'>0.22375E+02</wgt>
<wgt id='8562'>0.22360E+02</wgt>
<wgt id='8563'>0.22380E+02</wgt>
<wgt id='8564'>0.22372E+02</wgt>
<wgt id='8565'>0.22378E+02</wgt>
<wgt id='8566'>0.22375E+02</wgt>
<wgt id='8567'>0.22376E+02</wgt>
<wgt id='8568'>0.22387E+02</wgt>
<wgt id='8569'>0.22385E+02</wgt>
<wgt id='8570'>0.22378E+02</wgt>
<wgt id='8571'>0.22369E+02</wgt>
<wgt id='8572'>0.22371E+02</wgt>
<wgt id='8573'>0.22368E+02</wgt>
<wgt id='8574'>0.22383E+02</wgt>
<wgt id='8575'>0.22377E+02</wgt>
<wgt id='8576'>0.22376E+02</wgt>
<wgt id='8577'>0.22377E+02</wgt>
<wgt id='8578'>0.22381E+02</wgt>
<wgt id='8579'>0.22392E+02</wgt>
<wgt id='8580'>0.22379E+02</wgt>
<wgt id='8581'>0.22382E+02</wgt>
<wgt id='8582'>0.22364E+02</wgt>
<wgt id='8583'>0.22388E+02</wgt>
<wgt id='8584'>0.22384E+02</wgt>
<wgt id='8585'>0.22383E+02</wgt>
<wgt id='8586'>0.22390E+02</wgt>
<wgt id='8587'>0.22375E+02</wgt>
<wgt id='8588'>0.22373E+02</wgt>
<wgt id='8589'>0.22380E+02</wgt>
<wgt id='8590'>0.22376E+02</wgt>
<wgt id='8591'>0.22375E+02</wgt>
<wgt id='8592'>0.22378E+02</wgt>
<wgt id='8593'>0.22370E+02</wgt>
<wgt id='8594'>0.22381E+02</wgt>
<wgt id='8595'>0.22381E+02</wgt>
<wgt id='8596'>0.22373E+02</wgt>
<wgt id='8597'>0.22382E+02</wgt>
<wgt id='8598'>0.22384E+02</wgt>
<wgt id='8599'>0.22382E+02</wgt>
<wgt id='8600'>0.22378E+02</wgt>
<wgt id='8601'>0.21843E+02</wgt>
<wgt id='8602'>0.22873E+02</wgt>
<wgt id='9000'>0.21167E+02</wgt>
<wgt id='9001'>0.21180E+02</wgt>
<wgt id='9002'>0.21242E+02</wgt>
<wgt id='9003'>0.21040E+02</wgt>
<wgt id='9004'>0.21141E+02</wgt>
<wgt id='9005'>0.21214E+02</wgt>
<wgt id='9006'>0.21155E+02</wgt>
<wgt id='9007'>0.21222E+02</wgt>
<wgt id='9008'>0.21212E+02</wgt>
<wgt id='9009'>0.21149E+02</wgt>
<wgt id='9010'>0.21108E+02</wgt>
<wgt id='9011'>0.21374E+02</wgt>
<wgt id='9012'>0.21009E+02</wgt>
<wgt id='9013'>0.20919E+02</wgt>
<wgt id='9014'>0.21014E+02</wgt>
<wgt id='9015'>0.21162E+02</wgt>
<wgt id='9016'>0.21345E+02</wgt>
<wgt id='9017'>0.21131E+02</wgt>
<wgt id='9018'>0.21126E+02</wgt>
<wgt id='9019'>0.21137E+02</wgt>
<wgt id='9020'>0.21270E+02</wgt>
<wgt id='9021'>0.21134E+02</wgt>
<wgt id='9022'>0.21198E+02</wgt>
<wgt id='9023'>0.21119E+02</wgt>
<wgt id='9024'>0.21137E+02</wgt>
<wgt id='9025'>0.21189E+02</wgt>
<wgt id='9026'>0.21164E+02</wgt>
<wgt id='9027'>0.21139E+02</wgt>
<wgt id='9028'>0.21188E+02</wgt>
<wgt id='9029'>0.21192E+02</wgt>
<wgt id='9030'>0.21171E+02</wgt>
<wgt id='9031'>0.21160E+02</wgt>
<wgt id='9032'>0.21186E+02</wgt>
<wgt id='9033'>0.21193E+02</wgt>
<wgt id='9034'>0.21160E+02</wgt>
<wgt id='9035'>0.21201E+02</wgt>
<wgt id='9036'>0.21170E+02</wgt>
<wgt id='9037'>0.21186E+02</wgt>
<wgt id='9038'>0.21171E+02</wgt>
<wgt id='9039'>0.21170E+02</wgt>
<wgt id='9040'>0.21146E+02</wgt>
<wgt id='9041'>0.21158E+02</wgt>
<wgt id='9042'>0.21164E+02</wgt>
<wgt id='9043'>0.21152E+02</wgt>
<wgt id='9044'>0.21173E+02</wgt>
<wgt id='9045'>0.21165E+02</wgt>
<wgt id='9046'>0.21141E+02</wgt>
<wgt id='9047'>0.21160E+02</wgt>
<wgt id='9048'>0.21174E+02</wgt>
<wgt id='9049'>0.21155E+02</wgt>
<wgt id='9050'>0.21171E+02</wgt>
<wgt id='9051'>0.21177E+02</wgt>
<wgt id='9052'>0.21174E+02</wgt>
<wgt id='9053'>0.21170E+02</wgt>
<wgt id='9054'>0.21158E+02</wgt>
<wgt id='9055'>0.21162E+02</wgt>
<wgt id='9056'>0.21185E+02</wgt>
<wgt id='9057'>0.21167E+02</wgt>
<wgt id='9058'>0.21152E+02</wgt>
<wgt id='9059'>0.21158E+02</wgt>
<wgt id='9060'>0.21160E+02</wgt>
<wgt id='9061'>0.21170E+02</wgt>
<wgt id='9062'>0.21170E+02</wgt>
<wgt id='9063'>0.21177E+02</wgt>
<wgt id='9064'>0.21162E+02</wgt>
<wgt id='9065'>0.21167E+02</wgt>
<wgt id='9066'>0.21170E+02</wgt>
<wgt id='9067'>0.21174E+02</wgt>
<wgt id='9068'>0.21174E+02</wgt>
<wgt id='9069'>0.21179E+02</wgt>
<wgt id='9070'>0.21164E+02</wgt>
<wgt id='9071'>0.21180E+02</wgt>
<wgt id='9072'>0.21181E+02</wgt>
<wgt id='9073'>0.21161E+02</wgt>
<wgt id='9074'>0.21170E+02</wgt>
<wgt id='9075'>0.21166E+02</wgt>
<wgt id='9076'>0.21166E+02</wgt>
<wgt id='9077'>0.21171E+02</wgt>
<wgt id='9078'>0.21169E+02</wgt>
<wgt id='9079'>0.21164E+02</wgt>
<wgt id='9080'>0.21182E+02</wgt>
<wgt id='9081'>0.21165E+02</wgt>
<wgt id='9082'>0.21172E+02</wgt>
<wgt id='9083'>0.21160E+02</wgt>
<wgt id='9084'>0.21161E+02</wgt>
<wgt id='9085'>0.21162E+02</wgt>
<wgt id='9086'>0.21171E+02</wgt>
<wgt id='9087'>0.21154E+02</wgt>
<wgt id='9088'>0.21162E+02</wgt>
<wgt id='9089'>0.21162E+02</wgt>
<wgt id='9090'>0.21171E+02</wgt>
<wgt id='9091'>0.21165E+02</wgt>
<wgt id='9092'>0.21166E+02</wgt>
<wgt id='9093'>0.21164E+02</wgt>
<wgt id='9094'>0.21165E+02</wgt>
<wgt id='9095'>0.21170E+02</wgt>
<wgt id='9096'>0.21163E+02</wgt>
<wgt id='9097'>0.21169E+02</wgt>
<wgt id='9098'>0.21167E+02</wgt>
<wgt id='9099'>0.21163E+02</wgt>
<wgt id='9100'>0.21167E+02</wgt>
<wgt id='9101'>0.20741E+02</wgt>
<wgt id='9102'>0.21567E+02</wgt>
<wgt id='10000'>0.22385E+02</wgt>
<wgt id='10001'>0.22469E+02</wgt>
<wgt id='10002'>0.22322E+02</wgt>
<wgt id='10003'>0.22380E+02</wgt>
<wgt id='10004'>0.22355E+02</wgt>
<wgt id='10005'>0.22849E+02</wgt>
<wgt id='10006'>0.22355E+02</wgt>
<wgt id='10007'>0.22374E+02</wgt>
<wgt id='10008'>0.22412E+02</wgt>
<wgt id='10009'>0.22344E+02</wgt>
<wgt id='10010'>0.22406E+02</wgt>
<wgt id='10011'>0.22362E+02</wgt>
<wgt id='10012'>0.22351E+02</wgt>
<wgt id='10013'>0.22383E+02</wgt>
<wgt id='10014'>0.22376E+02</wgt>
<wgt id='10015'>0.22407E+02</wgt>
<wgt id='10016'>0.22371E+02</wgt>
<wgt id='10017'>0.22255E+02</wgt>
<wgt id='10018'>0.22407E+02</wgt>
<wgt id='10019'>0.22359E+02</wgt>
<wgt id='10020'>0.22367E+02</wgt>
<wgt id='10021'>0.22378E+02</wgt>
<wgt id='10022'>0.22372E+02</wgt>
<wgt id='10023'>0.22388E+02</wgt>
<wgt id='10024'>0.22369E+02</wgt>
<wgt id='10025'>0.22371E+02</wgt>
<wgt id='10026'>0.22416E+02</wgt>
<wgt id='10027'>0.22412E+02</wgt>
<wgt id='10028'>0.22512E+02</wgt>
<wgt id='10029'>0.22412E+02</wgt>
<wgt id='10030'>0.22379E+02</wgt>
<wgt id='10031'>0.21843E+02</wgt>
<wgt id='10032'>0.22873E+02</wgt>
<wgt id='11000'>0.21172E+02</wgt>
<wgt id='11001'>0.21087E+02</wgt>
<wgt id='11002'>0.21241E+02</wgt>
<wgt id='11003'>0.21148E+02</wgt>
<wgt id='11004'>0.21239E+02</wgt>
<wgt id='11005'>0.20947E+02</wgt>
<wgt id='11006'>0.21178E+02</wgt>
<wgt id='11007'>0.21125E+02</wgt>
<wgt id='11008'>0.21120E+02</wgt>
<wgt id='11009'>0.21094E+02</wgt>
<wgt id='11010'>0.21284E+02</wgt>
<wgt id='11011'>0.21087E+02</wgt>
<wgt id='11012'>0.21189E+02</wgt>
<wgt id='11013'>0.21233E+02</wgt>
<wgt id='11014'>0.21125E+02</wgt>
<wgt id='11015'>0.21154E+02</wgt>
<wgt id='11016'>0.21152E+02</wgt>
<wgt id='11017'>0.21312E+02</wgt>
<wgt id='11018'>0.21164E+02</wgt>
<wgt id='11019'>0.21163E+02</wgt>
<wgt id='11020'>0.21216E+02</wgt>
<wgt id='11021'>0.21218E+02</wgt>
<wgt id='11022'>0.21510E+02</wgt>
<wgt id='11023'>0.21176E+02</wgt>
<wgt id='11024'>0.21179E+02</wgt>
<wgt id='11025'>0.21154E+02</wgt>
<wgt id='11026'>0.21177E+02</wgt>
<wgt id='11027'>0.21167E+02</wgt>
<wgt id='11028'>0.21181E+02</wgt>
<wgt id='11029'>0.21181E+02</wgt>
<wgt id='11030'>0.21172E+02</wgt>
<wgt id='11031'>0.20741E+02</wgt>
<wgt id='11032'>0.21567E+02</wgt>
<wgt id='12000'>0.23513E+02</wgt>
<wgt id='12001'>0.23482E+02</wgt>
<wgt id='12002'>0.23543E+02</wgt>
<wgt id='12003'>0.23572E+02</wgt>
<wgt id='12004'>0.23454E+02</wgt>
<wgt id='12005'>0.23547E+02</wgt>
<wgt id='12006'>0.23479E+02</wgt>
<wgt id='12007'>0.23571E+02</wgt>
<wgt id='12008'>0.23456E+02</wgt>
<wgt id='12009'>0.23541E+02</wgt>
<wgt id='12010'>0.23485E+02</wgt>
<wgt id='12011'>0.23447E+02</wgt>
<wgt id='12012'>0.23579E+02</wgt>
<wgt id='12013'>0.23429E+02</wgt>
<wgt id='12014'>0.23597E+02</wgt>
<wgt id='12015'>0.23522E+02</wgt>
<wgt id='12016'>0.23492E+02</wgt>
<wgt id='12017'>0.23590E+02</wgt>
<wgt id='12018'>0.23426E+02</wgt>
<wgt id='12019'>0.23454E+02</wgt>
<wgt id='12020'>0.23570E+02</wgt>
<wgt id='12021'>0.23592E+02</wgt>
<wgt id='12022'>0.23408E+02</wgt>
<wgt id='12023'>0.23395E+02</wgt>
<wgt id='12024'>0.23519E+02</wgt>
<wgt id='12025'>0.23543E+02</wgt>
<wgt id='12026'>0.23514E+02</wgt>
<wgt id='12027'>0.23550E+02</wgt>
<wgt id='12028'>0.23496E+02</wgt>
<wgt id='12050'>0.23513E+02</wgt>
<wgt id='12051'>0.23508E+02</wgt>
<wgt id='12052'>0.23503E+02</wgt>
<wgt id='12053'>0.23503E+02</wgt>
<wgt id='12054'>0.23507E+02</wgt>
<wgt id='12055'>0.23594E+02</wgt>
<wgt id='12056'>0.23413E+02</wgt>
<wgt id='12057'>0.23434E+02</wgt>
<wgt id='12058'>0.23589E+02</wgt>
<wgt id='12059'>0.23476E+02</wgt>
<wgt id='12060'>0.23558E+02</wgt>
<wgt id='12061'>0.23496E+02</wgt>
<wgt id='12062'>0.23552E+02</wgt>
<wgt id='12063'>0.23313E+02</wgt>
<wgt id='13000'>0.21491E+02</wgt>
<wgt id='13001'>0.21475E+02</wgt>
<wgt id='13002'>0.21504E+02</wgt>
<wgt id='13003'>0.21523E+02</wgt>
<wgt id='13004'>0.21457E+02</wgt>
<wgt id='13005'>0.21539E+02</wgt>
<wgt id='13006'>0.21440E+02</wgt>
<wgt id='13007'>0.21576E+02</wgt>
<wgt id='13008'>0.21405E+02</wgt>
<wgt id='13009'>0.21479E+02</wgt>
<wgt id='13010'>0.21501E+02</wgt>
<wgt id='13011'>0.21545E+02</wgt>
<wgt id='13012'>0.21434E+02</wgt>
<wgt id='13013'>0.21433E+02</wgt>
<wgt id='13014'>0.21547E+02</wgt>
<wgt id='13015'>0.21470E+02</wgt>
<wgt id='13016'>0.21506E+02</wgt>
<wgt id='13017'>0.21477E+02</wgt>
<wgt id='13018'>0.21499E+02</wgt>
<wgt id='13019'>0.21459E+02</wgt>
<wgt id='13020'>0.21519E+02</wgt>
<wgt id='13021'>0.21356E+02</wgt>
<wgt id='13022'>0.21595E+02</wgt>
<wgt id='13023'>0.21470E+02</wgt>
<wgt id='13024'>0.21507E+02</wgt>
<wgt id='13025'>0.21395E+02</wgt>
<wgt id='13026'>0.21534E+02</wgt>
<wgt id='13027'>0.21476E+02</wgt>
<wgt id='13028'>0.21527E+02</wgt>
<wgt id='13050'>0.21491E+02</wgt>
<wgt id='13051'>0.21502E+02</wgt>
<wgt id='13052'>0.21427E+02</wgt>
<wgt id='13053'>0.21494E+02</wgt>
<wgt id='13054'>0.21479E+02</wgt>
<wgt id='13055'>0.21399E+02</wgt>
<wgt id='13056'>0.21504E+02</wgt>
<wgt id='13057'>0.21423E+02</wgt>
<wgt id='13058'>0.21597E+02</wgt>
<wgt id='13059'>0.21429E+02</wgt>
<wgt id='13060'>0.21446E+02</wgt>
<wgt id='13061'>0.21427E+02</wgt>
<wgt id='13062'>0.21658E+02</wgt>
<wgt id='13063'>0.21410E+02</wgt>
<wgt id='14000'>0.22125E+02</wgt>
<wgt id='14001'>0.22122E+02</wgt>
<wgt id='14002'>0.22118E+02</wgt>
<wgt id='14003'>0.22115E+02</wgt>
<wgt id='14004'>0.22112E+02</wgt>
<wgt id='14005'>0.22108E+02</wgt>
<wgt id='14006'>0.22105E+02</wgt>
<wgt id='14007'>0.22101E+02</wgt>
<wgt id='14008'>0.22098E+02</wgt>
<wgt id='14009'>0.22094E+02</wgt>
<wgt id='14010'>0.22091E+02</wgt>
<wgt id='14011'>0.22088E+02</wgt>
<wgt id='14012'>0.22084E+02</wgt>
<wgt id='14013'>0.22081E+02</wgt>
<wgt id='14014'>0.22077E+02</wgt>
<wgt id='14015'>0.22074E+02</wgt>
<wgt id='14016'>0.22070E+02</wgt>
<wgt id='14017'>0.22067E+02</wgt>
<wgt id='14018'>0.22064E+02</wgt>
<wgt id='14019'>0.22060E+02</wgt>
<wgt id='14020'>0.22057E+02</wgt>
<wgt id='14021'>0.22053E+02</wgt>
<wgt id='14022'>0.22050E+02</wgt>
<wgt id='14023'>0.22046E+02</wgt>
<wgt id='14024'>0.22043E+02</wgt>
<wgt id='14025'>0.22040E+02</wgt>
<wgt id='14026'>0.22036E+02</wgt>
<wgt id='14027'>0.22033E+02</wgt>
<wgt id='14028'>0.22029E+02</wgt>
<wgt id='14029'>0.22026E+02</wgt>
<wgt id='14030'>0.22022E+02</wgt>
<wgt id='15000'>0.20903E+02</wgt>
<wgt id='15001'>0.20916E+02</wgt>
<wgt id='15002'>0.20978E+02</wgt>
<wgt id='15003'>0.20777E+02</wgt>
<wgt id='15004'>0.20876E+02</wgt>
<wgt id='15005'>0.20950E+02</wgt>
<wgt id='15006'>0.20890E+02</wgt>
<wgt id='15007'>0.20955E+02</wgt>
<wgt id='15008'>0.20945E+02</wgt>
<wgt id='15009'>0.20885E+02</wgt>
<wgt id='15010'>0.20843E+02</wgt>
<wgt id='15011'>0.21108E+02</wgt>
<wgt id='15012'>0.20747E+02</wgt>
<wgt id='15013'>0.20656E+02</wgt>
<wgt id='15014'>0.20751E+02</wgt>
<wgt id='15015'>0.20899E+02</wgt>
<wgt id='15016'>0.21081E+02</wgt>
<wgt id='15017'>0.20869E+02</wgt>
<wgt id='15018'>0.20862E+02</wgt>
<wgt id='15019'>0.20873E+02</wgt>
<wgt id='15020'>0.21003E+02</wgt>
<wgt id='15021'>0.20866E+02</wgt>
<wgt id='15022'>0.20934E+02</wgt>
<wgt id='15023'>0.20854E+02</wgt>
<wgt id='15024'>0.20873E+02</wgt>
<wgt id='15025'>0.20926E+02</wgt>
<wgt id='15026'>0.20900E+02</wgt>
<wgt id='15027'>0.20872E+02</wgt>
<wgt id='15028'>0.20923E+02</wgt>
<wgt id='15029'>0.20928E+02</wgt>
<wgt id='15030'>0.20904E+02</wgt>
<wgt id='15031'>0.20895E+02</wgt>
<wgt id='15032'>0.20922E+02</wgt>
<wgt id='15033'>0.20929E+02</wgt>
<wgt id='15034'>0.20896E+02</wgt>
<wgt id='15035'>0.20936E+02</wgt>
<wgt id='15036'>0.20905E+02</wgt>
<wgt id='15037'>0.20922E+02</wgt>
<wgt id='15038'>0.20907E+02</wgt>
<wgt id='15039'>0.20906E+02</wgt>
<wgt id='15040'>0.20882E+02</wgt>
<wgt id='15041'>0.20895E+02</wgt>
<wgt id='15042'>0.20900E+02</wgt>
<wgt id='15043'>0.20887E+02</wgt>
<wgt id='15044'>0.20909E+02</wgt>
<wgt id='15045'>0.20902E+02</wgt>
<wgt id='15046'>0.20877E+02</wgt>
<wgt id='15047'>0.20896E+02</wgt>
<wgt id='15048'>0.20909E+02</wgt>
<wgt id='15049'>0.20891E+02</wgt>
<wgt id='15050'>0.20907E+02</wgt>
<wgt id='15051'>0.20913E+02</wgt>
<wgt id='15052'>0.20909E+02</wgt>
<wgt id='15053'>0.20905E+02</wgt>
<wgt id='15054'>0.20894E+02</wgt>
<wgt id='15055'>0.20897E+02</wgt>
<wgt id='15056'>0.20920E+02</wgt>
<wgt id='15057'>0.20902E+02</wgt>
<wgt id='15058'>0.20887E+02</wgt>
<wgt id='15059'>0.20894E+02</wgt>
<wgt id='15060'>0.20896E+02</wgt>
<wgt id='15061'>0.20906E+02</wgt>
<wgt id='15062'>0.20906E+02</wgt>
<wgt id='15063'>0.20912E+02</wgt>
<wgt id='15064'>0.20898E+02</wgt>
<wgt id='15065'>0.20902E+02</wgt>
<wgt id='15066'>0.20905E+02</wgt>
<wgt id='15067'>0.20910E+02</wgt>
<wgt id='15068'>0.20909E+02</wgt>
<wgt id='15069'>0.20915E+02</wgt>
<wgt id='15070'>0.20900E+02</wgt>
<wgt id='15071'>0.20916E+02</wgt>
<wgt id='15072'>0.20916E+02</wgt>
<wgt id='15073'>0.20897E+02</wgt>
<wgt id='15074'>0.20906E+02</wgt>
<wgt id='15075'>0.20901E+02</wgt>
<wgt id='15076'>0.20901E+02</wgt>
<wgt id='15077'>0.20907E+02</wgt>
<wgt id='15078'>0.20905E+02</wgt>
<wgt id='15079'>0.20899E+02</wgt>
<wgt id='15080'>0.20917E+02</wgt>
<wgt id='15081'>0.20901E+02</wgt>
<wgt id='15082'>0.20908E+02</wgt>
<wgt id='15083'>0.20896E+02</wgt>
<wgt id='15084'>0.20896E+02</wgt>
<wgt id='15085'>0.20897E+02</wgt>
<wgt id='15086'>0.20906E+02</wgt>
<wgt id='15087'>0.20889E+02</wgt>
<wgt id='15088'>0.20898E+02</wgt>
<wgt id='15089'>0.20898E+02</wgt>
<wgt id='15090'>0.20906E+02</wgt>
<wgt id='15091'>0.20900E+02</wgt>
<wgt id='15092'>0.20902E+02</wgt>
<wgt id='15093'>0.20900E+02</wgt>
<wgt id='15094'>0.20901E+02</wgt>
<wgt id='15095'>0.20905E+02</wgt>
<wgt id='15096'>0.20899E+02</wgt>
<wgt id='15097'>0.20904E+02</wgt>
<wgt id='15098'>0.20903E+02</wgt>
<wgt id='15099'>0.20898E+02</wgt>
<wgt id='15100'>0.20902E+02</wgt>
<wgt id='15101'>0.20903E+02</wgt>
<wgt id='15102'>0.20901E+02</wgt>
<wgt id='15103'>0.20903E+02</wgt>
<wgt id='15104'>0.20903E+02</wgt>
<wgt id='15105'>0.20904E+02</wgt>
<wgt id='15106'>0.20903E+02</wgt>
<wgt id='15107'>0.20902E+02</wgt>
<wgt id='1500'>0.22384E+02</wgt>
<wgt id='1501'>0.20683E+02</wgt>
<wgt id='1502'>0.22271E+02</wgt>
<wgt id='1503'>0.22440E+02</wgt>
<wgt id='1504'>0.22092E+02</wgt>
<wgt id='1505'>0.20064E+02</wgt>
<wgt id='1506'>0.22744E+02</wgt>
<wgt id='1507'>0.22549E+02</wgt>
<wgt id='1508'>0.22583E+02</wgt>
<wgt id='1509'>0.22546E+02</wgt>
<wgt id='1510'>0.21751E+02</wgt>
<wgt id='1511'>0.21883E+02</wgt>
<wgt id='1512'>0.22764E+02</wgt>
<wgt id='1513'>0.22799E+02</wgt>
<wgt id='1514'>0.22034E+02</wgt>
<wgt id='1515'>0.22759E+02</wgt>
<wgt id='1516'>0.22574E+02</wgt>
<wgt id='1517'>0.22209E+02</wgt>
<wgt id='1518'>0.22209E+02</wgt>
<wgt id='1519'>0.22705E+02</wgt>
<wgt id='1520'>0.22801E+02</wgt>
<wgt id='1521'>0.22587E+02</wgt>
<wgt id='1522'>0.22209E+02</wgt>
<wgt id='1523'>0.24017E+02</wgt>
<wgt id='1524'>0.22348E+02</wgt>
<wgt id='1525'>0.22521E+02</wgt>
<wgt id='1526'>0.22188E+02</wgt>
<wgt id='1527'>0.22108E+02</wgt>
<wgt id='1528'>0.22210E+02</wgt>
<wgt id='1529'>0.22337E+02</wgt>
<wgt id='1530'>0.22890E+02</wgt>
<wgt id='1531'>0.22348E+02</wgt>
<wgt id='1532'>0.21876E+02</wgt>
<wgt id='1533'>0.22330E+02</wgt>
<wgt id='1534'>0.22516E+02</wgt>
<wgt id='1535'>0.22932E+02</wgt>
<wgt id='1536'>0.22651E+02</wgt>
<wgt id='1537'>0.22780E+02</wgt>
<wgt id='1538'>0.22606E+02</wgt>
<wgt id='1539'>0.21793E+02</wgt>
<wgt id='1540'>0.22596E+02</wgt>
<wgt id='1541'>0.22436E+02</wgt>
<wgt id='1542'>0.22399E+02</wgt>
<wgt id='1543'>0.22539E+02</wgt>
<wgt id='1544'>0.22291E+02</wgt>
<wgt id='1545'>0.22379E+02</wgt>
<wgt id='1546'>0.22710E+02</wgt>
<wgt id='1547'>0.22090E+02</wgt>
<wgt id='1548'>0.22150E+02</wgt>
<wgt id='1549'>0.22190E+02</wgt>
<wgt id='1550'>0.22315E+02</wgt>
<wgt id='1551'>0.22354E+02</wgt>
<wgt id='1552'>0.22143E+02</wgt>
<wgt id='1553'>0.22688E+02</wgt>
<wgt id='1554'>0.22519E+02</wgt>
<wgt id='1555'>0.22220E+02</wgt>
<wgt id='1556'>0.21985E+02</wgt>
<wgt id='1557'>0.22842E+02</wgt>
<wgt id='1558'>0.22148E+02</wgt>
<wgt id='1559'>0.22700E+02</wgt>
<wgt id='1560'>0.22301E+02</wgt>
<wgt id='1561'>0.22394E+02</wgt>
<wgt id='1562'>0.22429E+02</wgt>
<wgt id='1563'>0.22622E+02</wgt>
<wgt id='1564'>0.21946E+02</wgt>
<wgt id='1565'>0.22554E+02</wgt>
<wgt id='1566'>0.22546E+02</wgt>
<wgt id='1567'>0.23730E+02</wgt>
<wgt id='1568'>0.22099E+02</wgt>
<wgt id='1569'>0.21817E+02</wgt>
<wgt id='1570'>0.22268E+02</wgt>
<wgt id='1571'>0.22540E+02</wgt>
<wgt id='1572'>0.22532E+02</wgt>
<wgt id='1573'>0.21052E+02</wgt>
<wgt id='1574'>0.22661E+02</wgt>
<wgt id='1575'>0.22183E+02</wgt>
<wgt id='1576'>0.22045E+02</wgt>
<wgt id='1577'>0.22635E+02</wgt>
<wgt id='1578'>0.23073E+02</wgt>
<wgt id='1579'>0.22184E+02</wgt>
<wgt id='1580'>0.22427E+02</wgt>
<wgt id='1581'>0.22557E+02</wgt>
<wgt id='1582'>0.22107E+02</wgt>
<wgt id='1583'>0.22726E+02</wgt>
<wgt id='1584'>0.22338E+02</wgt>
<wgt id='1585'>0.21905E+02</wgt>
<wgt id='1586'>0.22276E+02</wgt>
<wgt id='1587'>0.22397E+02</wgt>
<wgt id='1588'>0.22339E+02</wgt>
<wgt id='1589'>0.23012E+02</wgt>
<wgt id='1590'>0.22266E+02</wgt>
<wgt id='1591'>0.22106E+02</wgt>
<wgt id='1592'>0.22533E+02</wgt>
<wgt id='1593'>0.22276E+02</wgt>
<wgt id='1594'>0.22855E+02</wgt>
<wgt id='1595'>0.22026E+02</wgt>
<wgt id='1596'>0.22711E+02</wgt>
<wgt id='1597'>0.22327E+02</wgt>
<wgt id='1598'>0.23001E+02</wgt>
<wgt id='1599'>0.22801E+02</wgt>
<wgt id='1600'>0.22548E+02</wgt>
<wgt id='1601'>0.21979E+02</wgt>
<wgt id='1602'>0.22658E+02</wgt>
<wgt id='1700'>0.21397E+02</wgt>
<wgt id='1800'>0.25932E+02</wgt>
<wgt id='1850'>0.32371E+02</wgt>
<wgt id='1900'>0.26601E+02</wgt>
<wgt id='1950'>0.31940E+02</wgt>
</rwgt>
</event>
<event>
      4   9999  2.16956E+01  1.16145E+01 -1.00000E+00  1.84790E-01
      21    -1     0     0   512   501  0.000000000E+00  0.000000000E+00  5.077516413E+01  5.077516413E+01  0.000000000E+00  0.00000E+00  9.000E+00
      21    -1     0     0   501   502  0.000000000E+00  0.000000000E+00 -2.692453099E+02  2.692453099E+02  0.000000000E+00  0.00000E+00  9.000E+00
      25     1     1     2     0     0  4.487308263E+00  1.071266705E+01 -2.536264535E+02  2.829953049E+02  1.250002701E+02  0.00000E+00  9.000E+00
      21     1     1     2   512   502 -4.487308263E+00 -1.071266705E+01  3.515630774E+01  3.702516907E+01  4.768371582E-07  0.00000E+00  9.000E+00
#rwgt            1           1   18.525650062390017                1        3317           0
<rwgt>
<wgt id='1001'>0.21696E+02</wgt>
<wgt id='1002'>0.19481E+02</wgt>
<wgt id='1003'>0.23679E+02</wgt>
<wgt id='1004'>0.20812E+02</wgt>
<wgt id='1005'>0.19304E+02</wgt>
<wgt id='1006'>0.22067E+02</wgt>
<wgt id='1007'>0.21603E+02</wgt>
<wgt id='1008'>0.18282E+02</wgt>
<wgt id='1009'>0.24750E+02</wgt>
<wgt id='2000'>0.21696E+02</wgt>
<wgt id='2001'>0.21659E+02</wgt>
<wgt id='2002'>0.21756E+02</wgt>
<wgt id='2003'>0.21729E+02</wgt>
<wgt id='2004'>0.21702E+02</wgt>
<wgt id='2005'>0.21687E+02</wgt>
<wgt id='2006'>0.21682E+02</wgt>
<wgt id='2007'>0.21695E+02</wgt>
<wgt id='2008'>0.21747E+02</wgt>
<wgt id='2009'>0.21665E+02</wgt>
<wgt id='2010'>0.21665E+02</wgt>
<wgt id='2011'>0.21758E+02</wgt>
<wgt id='2012'>0.21742E+02</wgt>
<wgt id='2013'>0.21729E+02</wgt>
<wgt id='2014'>0.21718E+02</wgt>
<wgt id='2015'>0.21724E+02</wgt>
<wgt id='2016'>0.21708E+02</wgt>
<wgt id='2017'>0.21690E+02</wgt>
<wgt id='2018'>0.21708E+02</wgt>
<wgt id='2019'>0.21694E+02</wgt>
<wgt id='2020'>0.21740E+02</wgt>
<wgt id='2021'>0.21677E+02</wgt>
<wgt id='2022'>0.21751E+02</wgt>
<wgt id='2023'>0.21734E+02</wgt>
<wgt id='2024'>0.21680E+02</wgt>
<wgt id='2025'>0.21785E+02</wgt>
<wgt id='2026'>0.21768E+02</wgt>
<wgt id='2027'>0.21662E+02</wgt>
<wgt id='2028'>0.21638E+02</wgt>
<wgt id='2029'>0.21743E+02</wgt>
<wgt id='2030'>0.21693E+02</wgt>
<wgt id='2031'>0.21726E+02</wgt>
<wgt id='2032'>0.21671E+02</wgt>
<wgt id='2033'>0.21699E+02</wgt>
<wgt id='2034'>0.21742E+02</wgt>
<wgt id='2035'>0.21684E+02</wgt>
<wgt id='2036'>0.21699E+02</wgt>
<wgt id='2037'>0.21735E+02</wgt>
<wgt id='2038'>0.21697E+02</wgt>
<wgt id='2039'>0.21664E+02</wgt>
<wgt id='2040'>0.21677E+02</wgt>
<wgt id='2041'>0.21673E+02</wgt>
<wgt id='2042'>0.21681E+02</wgt>
<wgt id='2043'>0.21731E+02</wgt>
<wgt id='2044'>0.21727E+02</wgt>
<wgt id='2045'>0.21694E+02</wgt>
<wgt id='2046'>0.21709E+02</wgt>
<wgt id='2047'>0.21708E+02</wgt>
<wgt id='2048'>0.21712E+02</wgt>
<wgt id='2049'>0.21705E+02</wgt>
<wgt id='2050'>0.21710E+02</wgt>
<wgt id='2051'>0.21705E+02</wgt>
<wgt id='2052'>0.21677E+02</wgt>
<wgt id='2053'>0.21681E+02</wgt>
<wgt id='2054'>0.21692E+02</wgt>
<wgt id='2055'>0.21700E+02</wgt>
<wgt id='2056'>0.21702E+02</wgt>
<wgt id='2057'>0.21690E+02</wgt>
<wgt id='2058'>0.21707E+02</wgt>
<wgt id='2059'>0.21696E+02</wgt>
<wgt id='2060'>0.21708E+02</wgt>
<wgt id='2061'>0.21691E+02</wgt>
<wgt id='2062'>0.21693E+02</wgt>
<wgt id='2063'>0.21695E+02</wgt>
<wgt id='2064'>0.21683E+02</wgt>
<wgt id='2065'>0.21689E+02</wgt>
<wgt id='2066'>0.21682E+02</wgt>
<wgt id='2067'>0.21693E+02</wgt>
<wgt id='2068'>0.21700E+02</wgt>
<wgt id='2069'>0.21698E+02</wgt>
<wgt id='2070'>0.21703E+02</wgt>
<wgt id='2071'>0.21689E+02</wgt>
<wgt id='2072'>0.21698E+02</wgt>
<wgt id='2073'>0.21702E+02</wgt>
<wgt id='2074'>0.21702E+02</wgt>
<wgt id='2075'>0.21690E+02</wgt>
<wgt id='2076'>0.21699E+02</wgt>
<wgt id='2077'>0.21693E+02</wgt>
<wgt id='2078'>0.21696E+02</wgt>
<wgt id='2079'>0.21696E+02</wgt>
<wgt id='2080'>0.21700E+02</wgt>
<wgt id='2081'>0.21700E+02</wgt>
<wgt id='2082'>0.21697E+02</wgt>
<wgt id='2083'>0.21694E+02</wgt>
<wgt id='2084'>0.21697E+02</wgt>
<wgt id='2085'>0.21698E+02</wgt>
<wgt id='2086'>0.21694E+02</wgt>
<wgt id='2087'>0.21693E+02</wgt>
<wgt id='2088'>0.21695E+02</wgt>
<wgt id='2089'>0.21696E+02</wgt>
<wgt id='2090'>0.21695E+02</wgt>
<wgt id='2091'>0.21692E+02</wgt>
<wgt id='2092'>0.21695E+02</wgt>
<wgt id='2093'>0.21694E+02</wgt>
<wgt id='2094'>0.21696E+02</wgt>
<wgt id='2095'>0.21694E+02</wgt>
<wgt id='2096'>0.21694E+02</wgt>
<wgt id='2097'>0.21697E+02</wgt>
<wgt id='2098'>0.21693E+02</wgt>
<wgt id='2099'>0.21694E+02</wgt>
<wgt id='2100'>0.21699E+02</wgt>
<wgt id='2101'>0.21327E+02</wgt>
<wgt id='2102'>0.22025E+02</wgt>
<wgt id='2104'>0.19965E+02</wgt>
<wgt id='2105'>0.20291E+02</wgt>
<wgt id='2106'>0.20615E+02</wgt>
<wgt id='2107'>0.20974E+02</wgt>
<wgt id='2108'>0.21537E+02</wgt>
<wgt id='2109'>0.21879E+02</wgt>
<wgt id='2110'>0.22307E+02</wgt>
<wgt id='2111'>0.22592E+02</wgt>
<wgt id='3000'>0.22556E+02</wgt>
<wgt id='3001'>0.22607E+02</wgt>
<wgt id='3002'>0.22491E+02</wgt>
<wgt id='3003'>0.22588E+02</wgt>
<wgt id='3004'>0.22582E+02</wgt>
<wgt id='3005'>0.22580E+02</wgt>
<wgt id='3006'>0.22565E+02</wgt>
<wgt id='3007'>0.22528E+02</wgt>
<wgt id='3008'>0.22535E+02</wgt>
<wgt id='3009'>0.22461E+02</wgt>
<wgt id='3010'>0.22520E+02</wgt>
<wgt id='3011'>0.22596E+02</wgt>
<wgt id='3012'>0.22629E+02</wgt>
<wgt id='3013'>0.22491E+02</wgt>
<wgt id='3014'>0.22565E+02</wgt>
<wgt id='3015'>0.22566E+02</wgt>
<wgt id='3016'>0.22565E+02</wgt>
<wgt id='3017'>0.22568E+02</wgt>
<wgt id='3018'>0.22589E+02</wgt>
<wgt id='3019'>0.22548E+02</wgt>
<wgt id='3020'>0.22515E+02</wgt>
<wgt id='3021'>0.22509E+02</wgt>
<wgt id='3022'>0.22557E+02</wgt>
<wgt id='3023'>0.22514E+02</wgt>
<wgt id='3024'>0.22494E+02</wgt>
<wgt id='3025'>0.22560E+02</wgt>
<wgt id='3026'>0.22601E+02</wgt>
<wgt id='3027'>0.22564E+02</wgt>
<wgt id='3028'>0.22476E+02</wgt>
<wgt id='3029'>0.22510E+02</wgt>
<wgt id='3030'>0.22609E+02</wgt>
<wgt id='3031'>0.22590E+02</wgt>
<wgt id='3032'>0.22585E+02</wgt>
<wgt id='3033'>0.22595E+02</wgt>
<wgt id='3034'>0.22572E+02</wgt>
<wgt id='3035'>0.22621E+02</wgt>
<wgt id='3036'>0.22572E+02</wgt>
<wgt id='3037'>0.22547E+02</wgt>
<wgt id='3038'>0.22564E+02</wgt>
<wgt id='3039'>0.22563E+02</wgt>
<wgt id='3040'>0.22546E+02</wgt>
<wgt id='3041'>0.22553E+02</wgt>
<wgt id='3042'>0.22521E+02</wgt>
<wgt id='3043'>0.22526E+02</wgt>
<wgt id='3044'>0.22574E+02</wgt>
<wgt id='3045'>0.22590E+02</wgt>
<wgt id='3046'>0.22550E+02</wgt>
<wgt id='3047'>0.22540E+02</wgt>
<wgt id='3048'>0.22584E+02</wgt>
<wgt id='3049'>0.22546E+02</wgt>
<wgt id='3050'>0.22576E+02</wgt>
<wgt id='3051'>0.22585E+02</wgt>
<wgt id='3052'>0.22561E+02</wgt>
<wgt id='3053'>0.22543E+02</wgt>
<wgt id='3054'>0.22541E+02</wgt>
<wgt id='3055'>0.22565E+02</wgt>
<wgt id='3056'>0.22563E+02</wgt>
<wgt id='3057'>0.22537E+02</wgt>
<wgt id='3058'>0.22557E+02</wgt>
<wgt id='3059'>0.22556E+02</wgt>
<wgt id='3060'>0.22551E+02</wgt>
<wgt id='3061'>0.22554E+02</wgt>
<wgt id='3062'>0.22554E+02</wgt>
<wgt id='3063'>0.22570E+02</wgt>
<wgt id='3064'>0.22552E+02</wgt>
<wgt id='3065'>0.22568E+02</wgt>
<wgt id='3066'>0.22561E+02</wgt>
<wgt id='3067'>0.22559E+02</wgt>
<wgt id='3068'>0.22552E+02</wgt>
<wgt id='3069'>0.22551E+02</wgt>
<wgt id='3070'>0.22556E+02</wgt>
<wgt id='3071'>0.22562E+02</wgt>
<wgt id='3072'>0.22556E+02</wgt>
<wgt id='3073'>0.22554E+02</wgt>
<wgt id='3074'>0.22560E+02</wgt>
<wgt id='3075'>0.22555E+02</wgt>
<wgt id='3076'>0.22556E+02</wgt>
<wgt id='3077'>0.22557E+02</wgt>
<wgt id='3078'>0.22556E+02</wgt>
<wgt id='3079'>0.22559E+02</wgt>
<wgt id='3080'>0.22558E+02</wgt>
<wgt id='3081'>0.22557E+02</wgt>
<wgt id='3082'>0.22553E+02</wgt>
<wgt id='3083'>0.22559E+02</wgt>
<wgt id='3084'>0.22554E+02</wgt>
<wgt id='3085'>0.22561E+02</wgt>
<wgt id='3086'>0.22557E+02</wgt>
<wgt id='3087'>0.22558E+02</wgt>
<wgt id='3088'>0.22555E+02</wgt>
<wgt id='3089'>0.22557E+02</wgt>
<wgt id='3090'>0.22563E+02</wgt>
<wgt id='3091'>0.22559E+02</wgt>
<wgt id='3092'>0.22556E+02</wgt>
<wgt id='3093'>0.22552E+02</wgt>
<wgt id='3094'>0.22560E+02</wgt>
<wgt id='3095'>0.22556E+02</wgt>
<wgt id='3096'>0.22552E+02</wgt>
<wgt id='3097'>0.22552E+02</wgt>
<wgt id='3098'>0.22552E+02</wgt>
<wgt id='3099'>0.22557E+02</wgt>
<wgt id='3100'>0.22556E+02</wgt>
<wgt id='3101'>0.22138E+02</wgt>
<wgt id='3102'>0.23007E+02</wgt>
<wgt id='5000'>0.20691E+02</wgt>
<wgt id='5001'>0.20631E+02</wgt>
<wgt id='5002'>0.20601E+02</wgt>
<wgt id='5003'>0.20614E+02</wgt>
<wgt id='5004'>0.20614E+02</wgt>
<wgt id='5005'>0.20412E+02</wgt>
<wgt id='5006'>0.20545E+02</wgt>
<wgt id='5007'>0.20578E+02</wgt>
<wgt id='5008'>0.20599E+02</wgt>
<wgt id='5009'>0.20804E+02</wgt>
<wgt id='5010'>0.20617E+02</wgt>
<wgt id='5011'>0.20654E+02</wgt>
<wgt id='5012'>0.20660E+02</wgt>
<wgt id='5013'>0.20330E+02</wgt>
<wgt id='5014'>0.20851E+02</wgt>
<wgt id='5015'>0.20853E+02</wgt>
<wgt id='5016'>0.20173E+02</wgt>
<wgt id='5017'>0.20669E+02</wgt>
<wgt id='5018'>0.20719E+02</wgt>
<wgt id='5019'>0.20656E+02</wgt>
<wgt id='5020'>0.20733E+02</wgt>
<wgt id='5021'>0.20767E+02</wgt>
<wgt id='5022'>0.20641E+02</wgt>
<wgt id='5023'>0.20610E+02</wgt>
<wgt id='5024'>0.20773E+02</wgt>
<wgt id='5025'>0.20663E+02</wgt>
<wgt id='5026'>0.20714E+02</wgt>
<wgt id='5027'>0.20931E+02</wgt>
<wgt id='5028'>0.20283E+02</wgt>
<wgt id='5029'>0.20224E+02</wgt>
<wgt id='5030'>0.20971E+02</wgt>
<wgt id='5031'>0.20426E+02</wgt>
<wgt id='5032'>0.21070E+02</wgt>
<wgt id='5033'>0.20576E+02</wgt>
<wgt id='5034'>0.20784E+02</wgt>
<wgt id='5035'>0.20408E+02</wgt>
<wgt id='5036'>0.20926E+02</wgt>
<wgt id='5037'>0.20554E+02</wgt>
<wgt id='5038'>0.20835E+02</wgt>
<wgt id='5039'>0.21093E+02</wgt>
<wgt id='5040'>0.20490E+02</wgt>
<wgt id='5041'>0.20546E+02</wgt>
<wgt id='5042'>0.20693E+02</wgt>
<wgt id='5043'>0.20876E+02</wgt>
<wgt id='5044'>0.20150E+02</wgt>
<wgt id='5045'>0.21068E+02</wgt>
<wgt id='5046'>0.20550E+02</wgt>
<wgt id='5047'>0.20717E+02</wgt>
<wgt id='5048'>0.20904E+02</wgt>
<wgt id='5049'>0.20696E+02</wgt>
<wgt id='5050'>0.20767E+02</wgt>
<wgt id='5051'>0.20746E+02</wgt>
<wgt id='5052'>0.20698E+02</wgt>
<wgt id='5053'>0.20217E+02</wgt>
<wgt id='5054'>0.20593E+02</wgt>
<wgt id='5055'>0.20531E+02</wgt>
<wgt id='5056'>0.20912E+02</wgt>
<wgt id='5060'>0.20288E+02</wgt>
<wgt id='5070'>0.21049E+02</wgt>
<wgt id='4000'>0.21733E+02</wgt>
<wgt id='4001'>0.21764E+02</wgt>
<wgt id='4002'>0.21816E+02</wgt>
<wgt id='4003'>0.21772E+02</wgt>
<wgt id='4004'>0.21658E+02</wgt>
<wgt id='4005'>0.21850E+02</wgt>
<wgt id='4006'>0.21667E+02</wgt>
<wgt id='4007'>0.21834E+02</wgt>
<wgt id='4008'>0.21715E+02</wgt>
<wgt id='4009'>0.21305E+02</wgt>
<wgt id='4010'>0.21958E+02</wgt>
<wgt id='4011'>0.22053E+02</wgt>
<wgt id='4012'>0.21548E+02</wgt>
<wgt id='4013'>0.20875E+02</wgt>
<wgt id='4014'>0.22217E+02</wgt>
<wgt id='4015'>0.22000E+02</wgt>
<wgt id='4016'>0.21564E+02</wgt>
<wgt id='4017'>0.21442E+02</wgt>
<wgt id='4018'>0.22079E+02</wgt>
<wgt id='4019'>0.22046E+02</wgt>
<wgt id='4020'>0.21382E+02</wgt>
<wgt id='4021'>0.21783E+02</wgt>
<wgt id='4022'>0.21620E+02</wgt>
<wgt id='4023'>0.21619E+02</wgt>
<wgt id='4024'>0.21831E+02</wgt>
<wgt id='4025'>0.21558E+02</wgt>
<wgt id='4026'>0.21889E+02</wgt>
<wgt id='4027'>0.21655E+02</wgt>
<wgt id='4028'>0.21836E+02</wgt>
<wgt id='4029'>0.21552E+02</wgt>
<wgt id='4030'>0.21796E+02</wgt>
<wgt id='4031'>0.21785E+02</wgt>
<wgt id='4032'>0.21665E+02</wgt>
<wgt id='4033'>0.21679E+02</wgt>
<wgt id='4034'>0.21850E+02</wgt>
<wgt id='4035'>0.22018E+02</wgt>
<wgt id='4036'>0.21467E+02</wgt>
<wgt id='4037'>0.21893E+02</wgt>
<wgt id='4038'>0.21442E+02</wgt>
<wgt id='4039'>0.21703E+02</wgt>
<wgt id='4040'>0.21702E+02</wgt>
<wgt id='4041'>0.21864E+02</wgt>
<wgt id='4042'>0.21634E+02</wgt>
<wgt id='4043'>0.21827E+02</wgt>
<wgt id='4044'>0.21703E+02</wgt>
<wgt id='4045'>0.21326E+02</wgt>
<wgt id='4046'>0.21719E+02</wgt>
<wgt id='4047'>0.21610E+02</wgt>
<wgt id='4048'>0.21536E+02</wgt>
<wgt id='4049'>0.21451E+02</wgt>
<wgt id='4050'>0.21548E+02</wgt>
<wgt id='4051'>0.21655E+02</wgt>
<wgt id='4052'>0.21688E+02</wgt>
<wgt id='4053'>0.21053E+02</wgt>
<wgt id='4054'>0.21759E+02</wgt>
<wgt id='4055'>0.21590E+02</wgt>
<wgt id='4056'>0.21933E+02</wgt>
<wgt id='4060'>0.21240E+02</wgt>
<wgt id='4070'>0.22188E+02</wgt>
<wgt id='4080'>0.21903E+02</wgt>
<wgt id='6000'>0.22111E+02</wgt>
<wgt id='6001'>0.22134E+02</wgt>
<wgt id='6002'>0.22084E+02</wgt>
<wgt id='6003'>0.22123E+02</wgt>
<wgt id='6004'>0.22101E+02</wgt>
<wgt id='6005'>0.22149E+02</wgt>
<wgt id='6006'>0.22073E+02</wgt>
<wgt id='6007'>0.22011E+02</wgt>
<wgt id='6008'>0.22221E+02</wgt>
<wgt id='6009'>0.22213E+02</wgt>
<wgt id='6010'>0.22010E+02</wgt>
<wgt id='6011'>0.22171E+02</wgt>
<wgt id='6012'>0.21978E+02</wgt>
<wgt id='6013'>0.22078E+02</wgt>
<wgt id='6014'>0.22167E+02</wgt>
<wgt id='6015'>0.22027E+02</wgt>
<wgt id='6016'>0.22157E+02</wgt>
<wgt id='6017'>0.21949E+02</wgt>
<wgt id='6018'>0.22301E+02</wgt>
<wgt id='6019'>0.22137E+02</wgt>
<wgt id='6020'>0.22086E+02</wgt>
<wgt id='6021'>0.22049E+02</wgt>
<wgt id='6022'>0.22193E+02</wgt>
<wgt id='6023'>0.21919E+02</wgt>
<wgt id='6024'>0.22245E+02</wgt>
<wgt id='6025'>0.21973E+02</wgt>
<wgt id='6026'>0.22172E+02</wgt>
<wgt id='6027'>0.22190E+02</wgt>
<wgt id='6028'>0.22112E+02</wgt>
<wgt id='6029'>0.22225E+02</wgt>
<wgt id='6030'>0.21974E+02</wgt>
<wgt id='6031'>0.22114E+02</wgt>
<wgt id='6032'>0.22092E+02</wgt>
<wgt id='6033'>0.22165E+02</wgt>
<wgt id='6034'>0.22052E+02</wgt>
<wgt id='6035'>0.22109E+02</wgt>
<wgt id='6036'>0.22170E+02</wgt>
<wgt id='6037'>0.22153E+02</wgt>
<wgt id='6038'>0.22110E+02</wgt>
<wgt id='6039'>0.22075E+02</wgt>
<wgt id='6040'>0.22147E+02</wgt>
<wgt id='6041'>0.22068E+02</wgt>
<wgt id='6042'>0.22163E+02</wgt>
<wgt id='6043'>0.22455E+02</wgt>
<wgt id='6044'>0.21968E+02</wgt>
<wgt id='6045'>0.22094E+02</wgt>
<wgt id='6046'>0.22154E+02</wgt>
<wgt id='6047'>0.22253E+02</wgt>
<wgt id='6048'>0.21802E+02</wgt>
<wgt id='6049'>0.22178E+02</wgt>
<wgt id='6050'>0.22067E+02</wgt>
<wgt id='7000'>0.20741E+02</wgt>
<wgt id='7001'>0.20751E+02</wgt>
<wgt id='7002'>0.20728E+02</wgt>
<wgt id='7003'>0.20805E+02</wgt>
<wgt id='7004'>0.20677E+02</wgt>
<wgt id='7005'>0.20781E+02</wgt>
<wgt id='7006'>0.20725E+02</wgt>
<wgt id='7007'>0.20637E+02</wgt>
<wgt id='7008'>0.20845E+02</wgt>
<wgt id='7009'>0.20788E+02</wgt>
<wgt id='7010'>0.20695E+02</wgt>
<wgt id='7011'>0.20487E+02</wgt>
<wgt id='7012'>0.20851E+02</wgt>
<wgt id='7013'>0.20741E+02</wgt>
<wgt id='7014'>0.20740E+02</wgt>
<wgt id='7015'>0.20663E+02</wgt>
<wgt id='7016'>0.20825E+02</wgt>
<wgt id='7017'>0.20614E+02</wgt>
<wgt id='7018'>0.20808E+02</wgt>
<wgt id='7019'>0.20708E+02</wgt>
<wgt id='7020'>0.20787E+02</wgt>
<wgt id='7021'>0.20745E+02</wgt>
<wgt id='7022'>0.20737E+02</wgt>
<wgt id='7023'>0.20940E+02</wgt>
<wgt id='7024'>0.20536E+02</wgt>
<wgt id='7025'>0.20827E+02</wgt>
<wgt id='7026'>0.20530E+02</wgt>
<wgt id='7027'>0.20844E+02</wgt>
<wgt id='7028'>0.20712E+02</wgt>
<wgt id='7029'>0.20663E+02</wgt>
<wgt id='7030'>0.20925E+02</wgt>
<wgt id='7031'>0.20730E+02</wgt>
<wgt id='7032'>0.20770E+02</wgt>
<wgt id='7033'>0.20721E+02</wgt>
<wgt id='7034'>0.20799E+02</wgt>
<wgt id='7035'>0.20779E+02</wgt>
<wgt id='7036'>0.20740E+02</wgt>
<wgt id='7037'>0.20748E+02</wgt>
<wgt id='7038'>0.20757E+02</wgt>
<wgt id='7039'>0.20703E+02</wgt>
<wgt id='7040'>0.20768E+02</wgt>
<wgt id='7041'>0.20682E+02</wgt>
<wgt id='7042'>0.20809E+02</wgt>
<wgt id='7043'>0.20762E+02</wgt>
<wgt id='7044'>0.20625E+02</wgt>
<wgt id='7045'>0.20509E+02</wgt>
<wgt id='7046'>0.20875E+02</wgt>
<wgt id='7047'>0.20807E+02</wgt>
<wgt id='7048'>0.20709E+02</wgt>
<wgt id='7049'>0.20662E+02</wgt>
<wgt id='7050'>0.20782E+02</wgt>
<wgt id='7060'>0.31432E+02</wgt>
<wgt id='8000'>0.21314E+02</wgt>
<wgt id='8001'>0.21309E+02</wgt>
<wgt id='8002'>0.21321E+02</wgt>
<wgt id='8003'>0.21316E+02</wgt>
<wgt id='8004'>0.21314E+02</wgt>
<wgt id='8005'>0.21255E+02</wgt>
<wgt id='8006'>0.21302E+02</wgt>
<wgt id='8007'>0.21287E+02</wgt>
<wgt id='8008'>0.21362E+02</wgt>
<wgt id='8009'>0.21413E+02</wgt>
<wgt id='8010'>0.21313E+02</wgt>
<wgt id='8011'>0.21303E+02</wgt>
<wgt id='8012'>0.21279E+02</wgt>
<wgt id='8013'>0.21310E+02</wgt>
<wgt id='8014'>0.21310E+02</wgt>
<wgt id='8015'>0.21296E+02</wgt>
<wgt id='8016'>0.21326E+02</wgt>
<wgt id='8017'>0.21328E+02</wgt>
<wgt id='8018'>0.21321E+02</wgt>
<wgt id='8019'>0.21353E+02</wgt>
<wgt id='8020'>0.21241E+02</wgt>
<wgt id='8021'>0.21317E+02</wgt>
<wgt id='8022'>0.21181E+02</wgt>
<wgt id='8023'>0.21337E+02</wgt>
<wgt id='8024'>0.21351E+02</wgt>
<wgt id='8025'>0.21389E+02</wgt>
<wgt id='8026'>0.21363E+02</wgt>
<wgt id='8027'>0.21276E+02</wgt>
<wgt id='8028'>0.21343E+02</wgt>
<wgt id='8029'>0.21087E+02</wgt>
<wgt id='8500'>0.21985E+02</wgt>
<wgt id='8501'>0.21898E+02</wgt>
<wgt id='8502'>0.22101E+02</wgt>
<wgt id='8503'>0.22084E+02</wgt>
<wgt id='8504'>0.21935E+02</wgt>
<wgt id='8505'>0.21970E+02</wgt>
<wgt id='8506'>0.21970E+02</wgt>
<wgt id='8507'>0.22075E+02</wgt>
<wgt id='8508'>0.22086E+02</wgt>
<wgt id='8509'>0.21973E+02</wgt>
<wgt id='8510'>0.22324E+02</wgt>
<wgt id='8511'>0.22007E+02</wgt>
<wgt id='8512'>0.21799E+02</wgt>
<wgt id='8513'>0.21982E+02</wgt>
<wgt id='8514'>0.21710E+02</wgt>
<wgt id='8515'>0.22077E+02</wgt>
<wgt id='8516'>0.21999E+02</wgt>
<wgt id='8517'>0.21834E+02</wgt>
<wgt id='8518'>0.21880E+02</wgt>
<wgt id='8519'>0.21882E+02</wgt>
<wgt id='8520'>0.22022E+02</wgt>
<wgt id='8521'>0.21894E+02</wgt>
<wgt id='8522'>0.21979E+02</wgt>
<wgt id='8523'>0.21918E+02</wgt>
<wgt id='8524'>0.21989E+02</wgt>
<wgt id='8525'>0.21957E+02</wgt>
<wgt id='8526'>0.21939E+02</wgt>
<wgt id='8527'>0.21995E+02</wgt>
<wgt id='8528'>0.21915E+02</wgt>
<wgt id='8529'>0.21975E+02</wgt>
<wgt id='8530'>0.21972E+02</wgt>
<wgt id='8531'>0.21973E+02</wgt>
<wgt id='8532'>0.21987E+02</wgt>
<wgt id='8533'>0.21940E+02</wgt>
<wgt id='8534'>0.21989E+02</wgt>
<wgt id='8535'>0.22035E+02</wgt>
<wgt id='8536'>0.21966E+02</wgt>
<wgt id='8537'>0.21989E+02</wgt>
<wgt id='8538'>0.21965E+02</wgt>
<wgt id='8539'>0.21983E+02</wgt>
<wgt id='8540'>0.21983E+02</wgt>
<wgt id='8541'>0.21994E+02</wgt>
<wgt id='8542'>0.22000E+02</wgt>
<wgt id='8543'>0.21963E+02</wgt>
<wgt id='8544'>0.21998E+02</wgt>
<wgt id='8545'>0.22002E+02</wgt>
<wgt id='8546'>0.22003E+02</wgt>
<wgt id='8547'>0.21972E+02</wgt>
<wgt id='8548'>0.21961E+02</wgt>
<wgt id='8549'>0.21980E+02</wgt>
<wgt id='8550'>0.21993E+02</wgt>
<wgt id='8551'>0.21960E+02</wgt>
<wgt id='8552'>0.21991E+02</wgt>
<wgt id='8553'>0.21978E+02</wgt>
<wgt id='8554'>0.21974E+02</wgt>
<wgt id='8555'>0.21986E+02</wgt>
<wgt id='8556'>0.21983E+02</wgt>
<wgt id='8557'>0.21975E+02</wgt>
<wgt id='8558'>0.22007E+02</wgt>
<wgt id='8559'>0.21970E+02</wgt>
<wgt id='8560'>0.21961E+02</wgt>
<wgt id='8561'>0.21976E+02</wgt>
<wgt id='8562'>0.21969E+02</wgt>
<wgt id='8563'>0.21987E+02</wgt>
<wgt id='8564'>0.21980E+02</wgt>
<wgt id='8565'>0.21984E+02</wgt>
<wgt id='8566'>0.21980E+02</wgt>
<wgt id='8567'>0.21981E+02</wgt>
<wgt id='8568'>0.21990E+02</wgt>
<wgt id='8569'>0.21988E+02</wgt>
<wgt id='8570'>0.21984E+02</wgt>
<wgt id='8571'>0.21979E+02</wgt>
<wgt id='8572'>0.21983E+02</wgt>
<wgt id='8573'>0.21975E+02</wgt>
<wgt id='8574'>0.21991E+02</wgt>
<wgt id='8575'>0.21981E+02</wgt>
<wgt id='8576'>0.21986E+02</wgt>
<wgt id='8577'>0.21989E+02</wgt>
<wgt id='8578'>0.21987E+02</wgt>
<wgt id='8579'>0.22000E+02</wgt>
<wgt id='8580'>0.21989E+02</wgt>
<wgt id='8581'>0.21986E+02</wgt>
<wgt id='8582'>0.21971E+02</wgt>
<wgt id='8583'>0.21990E+02</wgt>
<wgt id='8584'>0.21987E+02</wgt>
<wgt id='8585'>0.21985E+02</wgt>
<wgt id='8586'>0.21992E+02</wgt>
<wgt id='8587'>0.21976E+02</wgt>
<wgt id='8588'>0.21978E+02</wgt>
<wgt id='8589'>0.21988E+02</wgt>
<wgt id='8590'>0.21982E+02</wgt>
<wgt id='8591'>0.21984E+02</wgt>
<wgt id='8592'>0.21985E+02</wgt>
<wgt id='8593'>0.21977E+02</wgt>
<wgt id='8594'>0.21988E+02</wgt>
<wgt id='8595'>0.21987E+02</wgt>
<wgt id='8596'>0.21980E+02</wgt>
<wgt id='8597'>0.21986E+02</wgt>
<wgt id='8598'>0.21988E+02</wgt>
<wgt id='8599'>0.21987E+02</wgt>
<wgt id='8600'>0.21985E+02</wgt>
<wgt id='8601'>0.21683E+02</wgt>
<wgt id='8602'>0.22239E+02</wgt>
<wgt id='9000'>0.20871E+02</wgt>
<wgt id='9001'>0.20858E+02</wgt>
<wgt id='9002'>0.20953E+02</wgt>
<wgt id='9003'>0.20728E+02</wgt>
<wgt id='9004'>0.20841E+02</wgt>
<wgt id='9005'>0.20897E+02</wgt>
<wgt id='9006'>0.20884E+02</wgt>
<wgt id='9007'>0.20975E+02</wgt>
<wgt id='9008'>0.20940E+02</wgt>
<wgt id='9009'>0.20839E+02</wgt>
<wgt id='9010'>0.20783E+02</wgt>
<wgt id='9011'>0.21098E+02</wgt>
<wgt id='9012'>0.20708E+02</wgt>
<wgt id='9013'>0.20596E+02</wgt>
<wgt id='9014'>0.20758E+02</wgt>
<wgt id='9015'>0.20888E+02</wgt>
<wgt id='9016'>0.21116E+02</wgt>
<wgt id='9017'>0.20757E+02</wgt>
<wgt id='9018'>0.20800E+02</wgt>
<wgt id='9019'>0.20841E+02</wgt>
<wgt id='9020'>0.21025E+02</wgt>
<wgt id='9021'>0.20913E+02</wgt>
<wgt id='9022'>0.20918E+02</wgt>
<wgt id='9023'>0.20807E+02</wgt>
<wgt id='9024'>0.20825E+02</wgt>
<wgt id='9025'>0.20902E+02</wgt>
<wgt id='9026'>0.20873E+02</wgt>
<wgt id='9027'>0.20837E+02</wgt>
<wgt id='9028'>0.20902E+02</wgt>
<wgt id='9029'>0.20893E+02</wgt>
<wgt id='9030'>0.20880E+02</wgt>
<wgt id='9031'>0.20867E+02</wgt>
<wgt id='9032'>0.20891E+02</wgt>
<wgt id='9033'>0.20901E+02</wgt>
<wgt id='9034'>0.20857E+02</wgt>
<wgt id='9035'>0.20909E+02</wgt>
<wgt id='9036'>0.20870E+02</wgt>
<wgt id='9037'>0.20896E+02</wgt>
<wgt id='9038'>0.20874E+02</wgt>
<wgt id='9039'>0.20878E+02</wgt>
<wgt id='9040'>0.20848E+02</wgt>
<wgt id='9041'>0.20856E+02</wgt>
<wgt id='9042'>0.20867E+02</wgt>
<wgt id='9043'>0.20856E+02</wgt>
<wgt id='9044'>0.20882E+02</wgt>
<wgt id='9045'>0.20865E+02</wgt>
<wgt id='9046'>0.20844E+02</wgt>
<wgt id='9047'>0.20858E+02</wgt>
<wgt id='9048'>0.20875E+02</wgt>
<wgt id='9049'>0.20856E+02</wgt>
<wgt id='9050'>0.20878E+02</wgt>
<wgt id='9051'>0.20882E+02</wgt>
<wgt id='9052'>0.20873E+02</wgt>
<wgt id='9053'>0.20874E+02</wgt>
<wgt id='9054'>0.20862E+02</wgt>
<wgt id='9055'>0.20869E+02</wgt>
<wgt id='9056'>0.20890E+02</wgt>
<wgt id='9057'>0.20869E+02</wgt>
<wgt id='9058'>0.20858E+02</wgt>
<wgt id='9059'>0.20864E+02</wgt>
<wgt id='9060'>0.20864E+02</wgt>
<wgt id='9061'>0.20875E+02</wgt>
<wgt id='9062'>0.20875E+02</wgt>
<wgt id='9063'>0.20884E+02</wgt>
<wgt id='9064'>0.20862E+02</wgt>
<wgt id='9065'>0.20873E+02</wgt>
<wgt id='9066'>0.20877E+02</wgt>
<wgt id='9067'>0.20874E+02</wgt>
<wgt id='9068'>0.20883E+02</wgt>
<wgt id='9069'>0.20877E+02</wgt>
<wgt id='9070'>0.20869E+02</wgt>
<wgt id='9071'>0.20882E+02</wgt>
<wgt id='9072'>0.20881E+02</wgt>
<wgt id='9073'>0.20864E+02</wgt>
<wgt id='9074'>0.20874E+02</wgt>
<wgt id='9075'>0.20871E+02</wgt>
<wgt id='9076'>0.20867E+02</wgt>
<wgt id='9077'>0.20874E+02</wgt>
<wgt id='9078'>0.20871E+02</wgt>
<wgt id='9079'>0.20863E+02</wgt>
<wgt id='9080'>0.20884E+02</wgt>
<wgt id='9081'>0.20863E+02</wgt>
<wgt id='9082'>0.20873E+02</wgt>
<wgt id='9083'>0.20863E+02</wgt>
<wgt id='9084'>0.20864E+02</wgt>
<wgt id='9085'>0.20868E+02</wgt>
<wgt id='9086'>0.20873E+02</wgt>
<wgt id='9087'>0.20861E+02</wgt>
<wgt id='9088'>0.20869E+02</wgt>
<wgt id='9089'>0.20868E+02</wgt>
<wgt id='9090'>0.20875E+02</wgt>
<wgt id='9091'>0.20868E+02</wgt>
<wgt id='9092'>0.20870E+02</wgt>
<wgt id='9093'>0.20868E+02</wgt>
<wgt id='9094'>0.20870E+02</wgt>
<wgt id='9095'>0.20872E+02</wgt>
<wgt id='9096'>0.20866E+02</wgt>
<wgt id='9097'>0.20872E+02</wgt>
<wgt id='9098'>0.20871E+02</wgt>
<wgt id='9099'>0.20866E+02</wgt>
<wgt id='9100'>0.20870E+02</wgt>
<wgt id='9101'>0.20683E+02</wgt>
<wgt id='9102'>0.21047E+02</wgt>
<wgt id='10000'>0.21988E+02</wgt>
<wgt id='10001'>0.22097E+02</wgt>
<wgt id='10002'>0.21887E+02</wgt>
<wgt id='10003'>0.21985E+02</wgt>
<wgt id='10004'>0.21876E+02</wgt>
<wgt id='10005'>0.22445E+02</wgt>
<wgt id='10006'>0.21952E+02</wgt>
<wgt id='10007'>0.21979E+02</wgt>
<wgt id='10008'>0.22058E+02</wgt>
<wgt id='10009'>0.21937E+02</wgt>
<wgt id='10010'>0.22033E+02</wgt>
<wgt id='10011'>0.21960E+02</wgt>
<wgt id='10012'>0.21944E+02</wgt>
<wgt id='10013'>0.21983E+02</wgt>
<wgt id='10014'>0.21973E+02</wgt>
<wgt id='10015'>0.22012E+02</wgt>
<wgt id='10016'>0.21946E+02</wgt>
<wgt id='10017'>0.21831E+02</wgt>
<wgt id='10018'>0.22019E+02</wgt>
<wgt id='10019'>0.22028E+02</wgt>
<wgt id='10020'>0.21937E+02</wgt>
<wgt id='10021'>0.21965E+02</wgt>
<wgt id='10022'>0.21921E+02</wgt>
<wgt id='10023'>0.21994E+02</wgt>
<wgt id='10024'>0.21973E+02</wgt>
<wgt id='10025'>0.21963E+02</wgt>
<wgt id='10026'>0.22059E+02</wgt>
<wgt id='10027'>0.22033E+02</wgt>
<wgt id='10028'>0.22223E+02</wgt>
<wgt id='10029'>0.22020E+02</wgt>
<wgt id='10030'>0.21990E+02</wgt>
<wgt id='10031'>0.21683E+02</wgt>
<wgt id='10032'>0.22239E+02</wgt>
<wgt id='11000'>0.20873E+02</wgt>
<wgt id='11001'>0.20683E+02</wgt>
<wgt id='11002'>0.20954E+02</wgt>
<wgt id='11003'>0.20841E+02</wgt>
<wgt id='11004'>0.20973E+02</wgt>
<wgt id='11005'>0.20610E+02</wgt>
<wgt id='11006'>0.20878E+02</wgt>
<wgt id='11007'>0.20816E+02</wgt>
<wgt id='11008'>0.20807E+02</wgt>
<wgt id='11009'>0.20786E+02</wgt>
<wgt id='11010'>0.21064E+02</wgt>
<wgt id='11011'>0.20793E+02</wgt>
<wgt id='11012'>0.20897E+02</wgt>
<wgt id='11013'>0.20938E+02</wgt>
<wgt id='11014'>0.20832E+02</wgt>
<wgt id='11015'>0.20868E+02</wgt>
<wgt id='11016'>0.20846E+02</wgt>
<wgt id='11017'>0.21009E+02</wgt>
<wgt id='11018'>0.20865E+02</wgt>
<wgt id='11019'>0.20860E+02</wgt>
<wgt id='11020'>0.20920E+02</wgt>
<wgt id='11021'>0.20911E+02</wgt>
<wgt id='11022'>0.21205E+02</wgt>
<wgt id='11023'>0.20874E+02</wgt>
<wgt id='11024'>0.20904E+02</wgt>
<wgt id='11025'>0.20852E+02</wgt>
<wgt id='11026'>0.20879E+02</wgt>
<wgt id='11027'>0.20855E+02</wgt>
<wgt id='11028'>0.20898E+02</wgt>
<wgt id='11029'>0.20969E+02</wgt>
<wgt id='11030'>0.20871E+02</wgt>
<wgt id='11031'>0.20683E+02</wgt>
<wgt id='11032'>0.21047E+02</wgt>
<wgt id='12000'>0.23582E+02</wgt>
<wgt id='12001'>0.23546E+02</wgt>
<wgt id='12002'>0.23618E+02</wgt>
<wgt id='12003'>0.23654E+02</wgt>
<wgt id='12004'>0.23510E+02</wgt>
<wgt id='12005'>0.23625E+02</wgt>
<wgt id='12006'>0.23539E+02</wgt>
<wgt id='12007'>0.23651E+02</wgt>
<wgt id='12008'>0.23515E+02</wgt>
<wgt id='12009'>0.23621E+02</wgt>
<wgt id='12010'>0.23544E+02</wgt>
<wgt id='12011'>0.23479E+02</wgt>
<wgt id='12012'>0.23685E+02</wgt>
<wgt id='12013'>0.23487E+02</wgt>
<wgt id='12014'>0.23677E+02</wgt>
<wgt id='12015'>0.23604E+02</wgt>
<wgt id='12016'>0.23552E+02</wgt>
<wgt id='12017'>0.23678E+02</wgt>
<wgt id='12018'>0.23475E+02</wgt>
<wgt id='12019'>0.23530E+02</wgt>
<wgt id='12020'>0.23632E+02</wgt>
<wgt id='12021'>0.23679E+02</wgt>
<wgt id='12022'>0.23453E+02</wgt>
<wgt id='12023'>0.23419E+02</wgt>
<wgt id='12024'>0.23604E+02</wgt>
<wgt id='12025'>0.23597E+02</wgt>
<wgt id='12026'>0.23605E+02</wgt>
<wgt id='12027'>0.23673E+02</wgt>
<wgt id='12028'>0.23516E+02</wgt>
<wgt id='12050'>0.23582E+02</wgt>
<wgt id='12051'>0.23562E+02</wgt>
<wgt id='12052'>0.23584E+02</wgt>
<wgt id='12053'>0.23552E+02</wgt>
<wgt id='12054'>0.23585E+02</wgt>
<wgt id='12055'>0.23700E+02</wgt>
<wgt id='12056'>0.23470E+02</wgt>
<wgt id='12057'>0.23498E+02</wgt>
<wgt id='12058'>0.23667E+02</wgt>
<wgt id='12059'>0.23544E+02</wgt>
<wgt id='12060'>0.23631E+02</wgt>
<wgt id='12061'>0.23526E+02</wgt>
<wgt id='12062'>0.23650E+02</wgt>
<wgt id='12063'>0.23315E+02</wgt>
<wgt id='13000'>0.21587E+02</wgt>
<wgt id='13001'>0.21568E+02</wgt>
<wgt id='13002'>0.21602E+02</wgt>
<wgt id='13003'>0.21625E+02</wgt>
<wgt id='13004'>0.21545E+02</wgt>
<wgt id='13005'>0.21648E+02</wgt>
<wgt id='13006'>0.21522E+02</wgt>
<wgt id='13007'>0.21687E+02</wgt>
<wgt id='13008'>0.21485E+02</wgt>
<wgt id='13009'>0.21566E+02</wgt>
<wgt id='13010'>0.21605E+02</wgt>
<wgt id='13011'>0.21665E+02</wgt>
<wgt id='13012'>0.21506E+02</wgt>
<wgt id='13013'>0.21518E+02</wgt>
<wgt id='13014'>0.21652E+02</wgt>
<wgt id='13015'>0.21568E+02</wgt>
<wgt id='13016'>0.21604E+02</wgt>
<wgt id='13017'>0.21574E+02</wgt>
<wgt id='13018'>0.21591E+02</wgt>
<wgt id='13019'>0.21549E+02</wgt>
<wgt id='13020'>0.21620E+02</wgt>
<wgt id='13021'>0.21418E+02</wgt>
<wgt id='13022'>0.21713E+02</wgt>
<wgt id='13023'>0.21564E+02</wgt>
<wgt id='13024'>0.21601E+02</wgt>
<wgt id='13025'>0.21466E+02</wgt>
<wgt id='13026'>0.21636E+02</wgt>
<wgt id='13027'>0.21576E+02</wgt>
<wgt id='13028'>0.21625E+02</wgt>
<wgt id='13050'>0.21587E+02</wgt>
<wgt id='13051'>0.21588E+02</wgt>
<wgt id='13052'>0.21521E+02</wgt>
<wgt id='13053'>0.21571E+02</wgt>
<wgt id='13054'>0.21580E+02</wgt>
<wgt id='13055'>0.21480E+02</wgt>
<wgt id='13056'>0.21559E+02</wgt>
<wgt id='13057'>0.21507E+02</wgt>
<wgt id='13058'>0.21714E+02</wgt>
<wgt id='13059'>0.21513E+02</wgt>
<wgt id='13060'>0.21522E+02</wgt>
<wgt id='13061'>0.21511E+02</wgt>
<wgt id='13062'>0.21798E+02</wgt>
<wgt id='13063'>0.21489E+02</wgt>
<wgt id='14000'>0.21656E+02</wgt>
<wgt id='14001'>0.21652E+02</wgt>
<wgt id='14002'>0.21649E+02</wgt>
<wgt id='14003'>0.21645E+02</wgt>
<wgt id='14004'>0.21642E+02</wgt>
<wgt id='14005'>0.21639E+02</wgt>
<wgt id='14006'>0.21635E+02</wgt>
<wgt id='14007'>0.21632E+02</wgt>
<wgt id='14008'>0.21629E+02</wgt>
<wgt id='14009'>0.21625E+02</wgt>
<wgt id='14010'>0.21622E+02</wgt>
<wgt id='14011'>0.21619E+02</wgt>
<wgt id='14012'>0.21615E+02</wgt>
<wgt id='14013'>0.21612E+02</wgt>
<wgt id='14014'>0.21608E+02</wgt>
<wgt id='14015'>0.21605E+02</wgt>
<wgt id='14016'>0.21602E+02</wgt>
<wgt id='14017'>0.21598E+02</wgt>
<wgt id='14018'>0.21595E+02</wgt>
<wgt id='14019'>0.21592E+02</wgt>
<wgt id='14020'>0.21588E+02</wgt>
<wgt id='14021'>0.21585E+02</wgt>
<wgt id='14022'>0.21581E+02</wgt>
<wgt id='14023'>0.21578E+02</wgt>
<wgt id='14024'>0.21575E+02</wgt>
<wgt id='14025'>0.21571E+02</wgt>
<wgt id='14026'>0.21568E+02</wgt>
<wgt id='14027'>0.21565E+02</wgt>
<wgt id='14028'>0.21561E+02</wgt>
<wgt id='14029'>0.21558E+02</wgt>
<wgt id='14030'>0.21555E+02</wgt>
<wgt id='15000'>0.20617E+02</wgt>
<wgt id='15001'>0.20605E+02</wgt>
<wgt id='15002'>0.20698E+02</wgt>
<wgt id='15003'>0.20477E+02</wgt>
<wgt id='15004'>0.20588E+02</wgt>
<wgt id='15005'>0.20644E+02</wgt>
<wgt id='15006'>0.20630E+02</wgt>
<wgt id='15007'>0.20720E+02</wgt>
<wgt id='15008'>0.20686E+02</wgt>
<wgt id='15009'>0.20586E+02</wgt>
<wgt id='15010'>0.20531E+02</wgt>
<wgt id='15011'>0.20841E+02</wgt>
<wgt id='15012'>0.20456E+02</wgt>
<wgt id='15013'>0.20347E+02</wgt>
<wgt id='15014'>0.20505E+02</wgt>
<wgt id='15015'>0.20632E+02</wgt>
<wgt id='15016'>0.20859E+02</wgt>
<wgt id='15017'>0.20505E+02</wgt>
<wgt id='15018'>0.20548E+02</wgt>
<wgt id='15019'>0.20588E+02</wgt>
<wgt id='15020'>0.20770E+02</wgt>
<wgt id='15021'>0.20657E+02</wgt>
<wgt id='15022'>0.20665E+02</wgt>
<wgt id='15023'>0.20553E+02</wgt>
<wgt id='15024'>0.20570E+02</wgt>
<wgt id='15025'>0.20649E+02</wgt>
<wgt id='15026'>0.20619E+02</wgt>
<wgt id='15027'>0.20584E+02</wgt>
<wgt id='15028'>0.20648E+02</wgt>
<wgt id='15029'>0.20640E+02</wgt>
<wgt id='15030'>0.20626E+02</wgt>
<wgt id='15031'>0.20614E+02</wgt>
<wgt id='15032'>0.20637E+02</wgt>
<wgt id='15033'>0.20647E+02</wgt>
<wgt id='15034'>0.20604E+02</wgt>
<wgt id='15035'>0.20655E+02</wgt>
<wgt id='15036'>0.20616E+02</wgt>
<wgt id='15037'>0.20642E+02</wgt>
<wgt id='15038'>0.20620E+02</wgt>
<wgt id='15039'>0.20624E+02</wgt>
<wgt id='15040'>0.20594E+02</wgt>
<wgt id='15041'>0.20602E+02</wgt>
<wgt id='15042'>0.20613E+02</wgt>
<wgt id='15043'>0.20603E+02</wgt>
<wgt id='15044'>0.20629E+02</wgt>
<wgt id='15045'>0.20612E+02</wgt>
<wgt id='15046'>0.20591E+02</wgt>
<wgt id='15047'>0.20604E+02</wgt>
<wgt id='15048'>0.20621E+02</wgt>
<wgt id='15049'>0.20602E+02</wgt>
<wgt id='15050'>0.20624E+02</wgt>
<wgt id='15051'>0.20628E+02</wgt>
<wgt id='15052'>0.20620E+02</wgt>
<wgt id='15053'>0.20620E+02</wgt>
<wgt id='15054'>0.20608E+02</wgt>
<wgt id='15055'>0.20615E+02</wgt>
<wgt id='15056'>0.20637E+02</wgt>
<wgt id='15057'>0.20616E+02</wgt>
<wgt id='15058'>0.20604E+02</wgt>
<wgt id='15059'>0.20611E+02</wgt>
<wgt id='15060'>0.20611E+02</wgt>
<wgt id='15061'>0.20621E+02</wgt>
<wgt id='15062'>0.20621E+02</wgt>
<wgt id='15063'>0.20630E+02</wgt>
<wgt id='15064'>0.20608E+02</wgt>
<wgt id='15065'>0.20619E+02</wgt>
<wgt id='15066'>0.20623E+02</wgt>
<wgt id='15067'>0.20621E+02</wgt>
<wgt id='15068'>0.20629E+02</wgt>
<wgt id='15069'>0.20623E+02</wgt>
<wgt id='15070'>0.20616E+02</wgt>
<wgt id='15071'>0.20628E+02</wgt>
<wgt id='15072'>0.20627E+02</wgt>
<wgt id='15073'>0.20611E+02</wgt>
<wgt id='15074'>0.20621E+02</wgt>
<wgt id='15075'>0.20617E+02</wgt>
<wgt id='15076'>0.20614E+02</wgt>
<wgt id='15077'>0.20620E+02</wgt>
<wgt id='15078'>0.20617E+02</wgt>
<wgt id='15079'>0.20610E+02</wgt>
<wgt id='15080'>0.20630E+02</wgt>
<wgt id='15081'>0.20609E+02</wgt>
<wgt id='15082'>0.20619E+02</wgt>
<wgt id='15083'>0.20609E+02</wgt>
<wgt id='15084'>0.20611E+02</wgt>
<wgt id='15085'>0.20614E+02</wgt>
<wgt id='15086'>0.20619E+02</wgt>
<wgt id='15087'>0.20607E+02</wgt>
<wgt id='15088'>0.20616E+02</wgt>
<wgt id='15089'>0.20614E+02</wgt>
<wgt id='15090'>0.20621E+02</wgt>
<wgt id='15091'>0.20614E+02</wgt>
<wgt id='15092'>0.20616E+02</wgt>
<wgt id='15093'>0.20614E+02</wgt>
<wgt id='15094'>0.20616E+02</wgt>
<wgt id='15095'>0.20618E+02</wgt>
<wgt id='15096'>0.20612E+02</wgt>
<wgt id='15097'>0.20618E+02</wgt>
<wgt id='15098'>0.20617E+02</wgt>
<wgt id='15099'>0.20613E+02</wgt>
<wgt id='15100'>0.20616E+02</wgt>
<wgt id='15101'>0.20617E+02</wgt>
<wgt id='15102'>0.20615E+02</wgt>
<wgt id='15103'>0.20617E+02</wgt>
<wgt id='15104'>0.20617E+02</wgt>
<wgt id='15105'>0.20618E+02</wgt>
<wgt id='15106'>0.20617E+02</wgt>
<wgt id='15107'>0.20616E+02</wgt>
<wgt id='1500'>0.22132E+02</wgt>
<wgt id='1501'>0.20655E+02</wgt>
<wgt id='1502'>0.22087E+02</wgt>
<wgt id='1503'>0.22496E+02</wgt>
<wgt id='1504'>0.21721E+02</wgt>
<wgt id='1505'>0.20167E+02</wgt>
<wgt id='1506'>0.22604E+02</wgt>
<wgt id='1507'>0.22327E+02</wgt>
<wgt id='1508'>0.22292E+02</wgt>
<wgt id='1509'>0.22504E+02</wgt>
<wgt id='1510'>0.21503E+02</wgt>
<wgt id='1511'>0.21456E+02</wgt>
<wgt id='1512'>0.22508E+02</wgt>
<wgt id='1513'>0.22278E+02</wgt>
<wgt id='1514'>0.21730E+02</wgt>
<wgt id='1515'>0.22638E+02</wgt>
<wgt id='1516'>0.22369E+02</wgt>
<wgt id='1517'>0.21902E+02</wgt>
<wgt id='1518'>0.21956E+02</wgt>
<wgt id='1519'>0.22474E+02</wgt>
<wgt id='1520'>0.22912E+02</wgt>
<wgt id='1521'>0.22340E+02</wgt>
<wgt id='1522'>0.22077E+02</wgt>
<wgt id='1523'>0.23915E+02</wgt>
<wgt id='1524'>0.22320E+02</wgt>
<wgt id='1525'>0.22137E+02</wgt>
<wgt id='1526'>0.22037E+02</wgt>
<wgt id='1527'>0.21684E+02</wgt>
<wgt id='1528'>0.21830E+02</wgt>
<wgt id='1529'>0.22376E+02</wgt>
<wgt id='1530'>0.22996E+02</wgt>
<wgt id='1531'>0.22119E+02</wgt>
<wgt id='1532'>0.21513E+02</wgt>
<wgt id='1533'>0.21835E+02</wgt>
<wgt id='1534'>0.22467E+02</wgt>
<wgt id='1535'>0.22644E+02</wgt>
<wgt id='1536'>0.22137E+02</wgt>
<wgt id='1537'>0.22562E+02</wgt>
<wgt id='1538'>0.22370E+02</wgt>
<wgt id='1539'>0.21555E+02</wgt>
<wgt id='1540'>0.22278E+02</wgt>
<wgt id='1541'>0.22106E+02</wgt>
<wgt id='1542'>0.22145E+02</wgt>
<wgt id='1543'>0.22356E+02</wgt>
<wgt id='1544'>0.22297E+02</wgt>
<wgt id='1545'>0.22105E+02</wgt>
<wgt id='1546'>0.22620E+02</wgt>
<wgt id='1547'>0.21739E+02</wgt>
<wgt id='1548'>0.21866E+02</wgt>
<wgt id='1549'>0.21779E+02</wgt>
<wgt id='1550'>0.21948E+02</wgt>
<wgt id='1551'>0.22114E+02</wgt>
<wgt id='1552'>0.21896E+02</wgt>
<wgt id='1553'>0.22744E+02</wgt>
<wgt id='1554'>0.22006E+02</wgt>
<wgt id='1555'>0.21737E+02</wgt>
<wgt id='1556'>0.21737E+02</wgt>
<wgt id='1557'>0.22273E+02</wgt>
<wgt id='1558'>0.21796E+02</wgt>
<wgt id='1559'>0.22769E+02</wgt>
<wgt id='1560'>0.21958E+02</wgt>
<wgt id='1561'>0.22000E+02</wgt>
<wgt id='1562'>0.22457E+02</wgt>
<wgt id='1563'>0.22076E+02</wgt>
<wgt id='1564'>0.21675E+02</wgt>
<wgt id='1565'>0.22097E+02</wgt>
<wgt id='1566'>0.22402E+02</wgt>
<wgt id='1567'>0.23779E+02</wgt>
<wgt id='1568'>0.21746E+02</wgt>
<wgt id='1569'>0.21301E+02</wgt>
<wgt id='1570'>0.21792E+02</wgt>
<wgt id='1571'>0.22122E+02</wgt>
<wgt id='1572'>0.22377E+02</wgt>
<wgt id='1573'>0.20776E+02</wgt>
<wgt id='1574'>0.22642E+02</wgt>
<wgt id='1575'>0.21786E+02</wgt>
<wgt id='1576'>0.21950E+02</wgt>
<wgt id='1577'>0.22412E+02</wgt>
<wgt id='1578'>0.22638E+02</wgt>
<wgt id='1579'>0.21816E+02</wgt>
<wgt id='1580'>0.22078E+02</wgt>
<wgt id='1581'>0.22320E+02</wgt>
<wgt id='1582'>0.21653E+02</wgt>
<wgt id='1583'>0.22793E+02</wgt>
<wgt id='1584'>0.21916E+02</wgt>
<wgt id='1585'>0.21728E+02</wgt>
<wgt id='1586'>0.21925E+02</wgt>
<wgt id='1587'>0.22262E+02</wgt>
<wgt id='1588'>0.21974E+02</wgt>
<wgt id='1589'>0.22850E+02</wgt>
<wgt id='1590'>0.22054E+02</wgt>
<wgt id='1591'>0.21722E+02</wgt>
<wgt id='1592'>0.22106E+02</wgt>
<wgt id='1593'>0.21980E+02</wgt>
<wgt id='1594'>0.22827E+02</wgt>
<wgt id='1595'>0.21641E+02</wgt>
<wgt id='1596'>0.22444E+02</wgt>
<wgt id='1597'>0.22027E+02</wgt>
<wgt id='1598'>0.22628E+02</wgt>
<wgt id='1599'>0.22292E+02</wgt>
<wgt id='1600'>0.22508E+02</wgt>
<wgt id='1601'>0.21878E+02</wgt>
<wgt id='1602'>0.22215E+02</wgt>
<wgt id='1700'>0.21265E+02</wgt>
<wgt id='1800'>0.26173E+02</wgt>
<wgt id='1850'>0.30589E+02</wgt>
<wgt id='1900'>0.27245E+02</wgt>
<wgt id='1950'>0.30180E+02</wgt>
</rwgt>
</event>
<event>
      4   9999  2.16956E+01  2.82844E+01 -1.00000E+00  1.52337E-01
      21    -1     0     0   502   501  0.000000000E+00  0.000000000E+00  3.628677305E+01  3.628677305E+01  0.000000000E+00  0.00000E+00  9.000E+00
      21    -1     0     0   511   502  0.000000000E+00  0.000000000E+00 -2.079222433E+02  2.079222433E+02  0.000000000E+00  0.00000E+00  9.000E+00
      25     1     1     2     0     0  8.977593196E+00 -2.682179155E+01 -8.680493392E+01  1.547873994E+02  1.249961471E+02  0.00000E+00  9.000E+00
      21     1     1     2   511   501 -8.977593196E+00  2.682179155E+01 -8.483053628E+01  8.942161689E+01  0.000000000E+00  0.00000E+00  9.000E+00
#rwgt            1           1   17.967367268185516                1        3655           0
<rwgt>
<wgt id='1001'>0.21696E+02</wgt>
<wgt id='1002'>0.19367E+02</wgt>
<wgt id='1003'>0.24221E+02</wgt>
<wgt id='1004'>0.18389E+02</wgt>
<wgt id='1005'>0.16722E+02</wgt>
<wgt id='1006'>0.20168E+02</wgt>
<wgt id='1007'>0.25992E+02</wgt>
<wgt id='1008'>0.22646E+02</wgt>
<wgt id='1009'>0.29673E+02</wgt>
<wgt id='2000'>0.21696E+02</wgt>
<wgt id='2001'>0.21672E+02</wgt>
<wgt id='2002'>0.21765E+02</wgt>
<wgt id='2003'>0.21751E+02</wgt>
<wgt id='2004'>0.21727E+02</wgt>
<wgt id='2005'>0.21658E+02</wgt>
<wgt id='2006'>0.21646E+02</wgt>
<wgt id='2007'>0.21628E+02</wgt>
<wgt id='2008'>0.21661E+02</wgt>
<wgt id='2009'>0.21715E+02</wgt>
<wgt id='2010'>0.21683E+02</wgt>
<wgt id='2011'>0.21756E+02</wgt>
<wgt id='2012'>0.21778E+02</wgt>
<wgt id='2013'>0.21820E+02</wgt>
<wgt id='2014'>0.21752E+02</wgt>
<wgt id='2015'>0.21727E+02</wgt>
<wgt id='2016'>0.21666E+02</wgt>
<wgt id='2017'>0.21692E+02</wgt>
<wgt id='2018'>0.21749E+02</wgt>
<wgt id='2019'>0.21690E+02</wgt>
<wgt id='2020'>0.21739E+02</wgt>
<wgt id='2021'>0.21675E+02</wgt>
<wgt id='2022'>0.21712E+02</wgt>
<wgt id='2023'>0.21714E+02</wgt>
<wgt id='2024'>0.21697E+02</wgt>
<wgt id='2025'>0.21704E+02</wgt>
<wgt id='2026'>0.21701E+02</wgt>
<wgt id='2027'>0.21681E+02</wgt>
<wgt id='2028'>0.21686E+02</wgt>
<wgt id='2029'>0.21738E+02</wgt>
<wgt id='2030'>0.21708E+02</wgt>
<wgt id='2031'>0.21696E+02</wgt>
<wgt id='2032'>0.21702E+02</wgt>
<wgt id='2033'>0.21702E+02</wgt>
<wgt id='2034'>0.21697E+02</wgt>
<wgt id='2035'>0.21696E+02</wgt>
<wgt id='2036'>0.21688E+02</wgt>
<wgt id='2037'>0.21700E+02</wgt>
<wgt id='2038'>0.21682E+02</wgt>
<wgt id='2039'>0.21685E+02</wgt>
<wgt id='2040'>0.21688E+02</wgt>
<wgt id='2041'>0.21685E+02</wgt>
<wgt id='2042'>0.21689E+02</wgt>
<wgt id='2043'>0.21682E+02</wgt>
<wgt id='2044'>0.21702E+02</wgt>
<wgt id='2045'>0.21694E+02</wgt>
<wgt id='2046'>0.21731E+02</wgt>
<wgt id='2047'>0.21716E+02</wgt>
<wgt id='2048'>0.21697E+02</wgt>
<wgt id='2049'>0.21694E+02</wgt>
<wgt id='2050'>0.21713E+02</wgt>
<wgt id='2051'>0.21691E+02</wgt>
<wgt id='2052'>0.21683E+02</wgt>
<wgt id='2053'>0.21699E+02</wgt>
<wgt id='2054'>0.21700E+02</wgt>
<wgt id='2055'>0.21700E+02</wgt>
<wgt id='2056'>0.21689E+02</wgt>
<wgt id='2057'>0.21684E+02</wgt>
<wgt id='2058'>0.21696E+02</wgt>
<wgt id='2059'>0.21693E+02</wgt>
<wgt id='2060'>0.21705E+02</wgt>
<wgt id='2061'>0.21685E+02</wgt>
<wgt id='2062'>0.21688E+02</wgt>
<wgt id='2063'>0.21704E+02</wgt>
<wgt id='2064'>0.21686E+02</wgt>
<wgt id='2065'>0.21704E+02</wgt>
<wgt id='2066'>0.21694E+02</wgt>
<wgt id='2067'>0.21697E+02</wgt>
<wgt id='2068'>0.21701E+02</wgt>
<wgt id='2069'>0.21699E+02</wgt>
<wgt id='2070'>0.21694E+02</wgt>
<wgt id='2071'>0.21688E+02</wgt>
<wgt id='2072'>0.21696E+02</wgt>
<wgt id='2073'>0.21699E+02</wgt>
<wgt id='2074'>0.21699E+02</wgt>
<wgt id='2075'>0.21698E+02</wgt>
<wgt id='2076'>0.21690E+02</wgt>
<wgt id='2077'>0.21698E+02</wgt>
<wgt id='2078'>0.21693E+02</wgt>
<wgt id='2079'>0.21694E+02</wgt>
<wgt id='2080'>0.21693E+02</wgt>
<wgt id='2081'>0.21701E+02</wgt>
<wgt id='2082'>0.21697E+02</wgt>
<wgt id='2083'>0.21693E+02</wgt>
<wgt id='2084'>0.21701E+02</wgt>
<wgt id='2085'>0.21692E+02</wgt>
<wgt id='2086'>0.21691E+02</wgt>
<wgt id='2087'>0.21698E+02</wgt>
<wgt id='2088'>0.21698E+02</wgt>
<wgt id='2089'>0.21695E+02</wgt>
<wgt id='2090'>0.21697E+02</wgt>
<wgt id='2091'>0.21695E+02</wgt>
<wgt id='2092'>0.21695E+02</wgt>
<wgt id='2093'>0.21695E+02</wgt>
<wgt id='2094'>0.21694E+02</wgt>
<wgt id='2095'>0.21693E+02</wgt>
<wgt id='2096'>0.21696E+02</wgt>
<wgt id='2097'>0.21696E+02</wgt>
<wgt id='2098'>0.21697E+02</wgt>
<wgt id='2099'>0.21698E+02</wgt>
<wgt id='2100'>0.21694E+02</wgt>
<wgt id='2101'>0.21083E+02</wgt>
<wgt id='2102'>0.22277E+02</wgt>
<wgt id='2104'>0.18815E+02</wgt>
<wgt id='2105'>0.19337E+02</wgt>
<wgt id='2106'>0.19917E+02</wgt>
<wgt id='2107'>0.20509E+02</wgt>
<wgt id='2108'>0.21431E+02</wgt>
<wgt id='2109'>0.22038E+02</wgt>
<wgt id='2110'>0.22842E+02</wgt>
<wgt id='2111'>0.23451E+02</wgt>
<wgt id='3000'>0.22646E+02</wgt>
<wgt id='3001'>0.22712E+02</wgt>
<wgt id='3002'>0.22576E+02</wgt>
<wgt id='3003'>0.22708E+02</wgt>
<wgt id='3004'>0.22698E+02</wgt>
<wgt id='3005'>0.22728E+02</wgt>
<wgt id='3006'>0.22668E+02</wgt>
<wgt id='3007'>0.22685E+02</wgt>
<wgt id='3008'>0.22592E+02</wgt>
<wgt id='3009'>0.22638E+02</wgt>
<wgt id='3010'>0.22577E+02</wgt>
<wgt id='3011'>0.22674E+02</wgt>
<wgt id='3012'>0.22765E+02</wgt>
<wgt id='3013'>0.22521E+02</wgt>
<wgt id='3014'>0.22714E+02</wgt>
<wgt id='3015'>0.22692E+02</wgt>
<wgt id='3016'>0.22659E+02</wgt>
<wgt id='3017'>0.22713E+02</wgt>
<wgt id='3018'>0.22674E+02</wgt>
<wgt id='3019'>0.22589E+02</wgt>
<wgt id='3020'>0.22633E+02</wgt>
<wgt id='3021'>0.22609E+02</wgt>
<wgt id='3022'>0.22644E+02</wgt>
<wgt id='3023'>0.22629E+02</wgt>
<wgt id='3024'>0.22643E+02</wgt>
<wgt id='3025'>0.22650E+02</wgt>
<wgt id='3026'>0.22646E+02</wgt>
<wgt id='3027'>0.22655E+02</wgt>
<wgt id='3028'>0.22633E+02</wgt>
<wgt id='3029'>0.22646E+02</wgt>
<wgt id='3030'>0.22677E+02</wgt>
<wgt id='3031'>0.22660E+02</wgt>
<wgt id='3032'>0.22640E+02</wgt>
<wgt id='3033'>0.22652E+02</wgt>
<wgt id='3034'>0.22645E+02</wgt>
<wgt id='3035'>0.22672E+02</wgt>
<wgt id='3036'>0.22652E+02</wgt>
<wgt id='3037'>0.22659E+02</wgt>
<wgt id='3038'>0.22641E+02</wgt>
<wgt id='3039'>0.22663E+02</wgt>
<wgt id='3040'>0.22632E+02</wgt>
<wgt id='3041'>0.22635E+02</wgt>
<wgt id='3042'>0.22633E+02</wgt>
<wgt id='3043'>0.22640E+02</wgt>
<wgt id='3044'>0.22656E+02</wgt>
<wgt id='3045'>0.22655E+02</wgt>
<wgt id='3046'>0.22654E+02</wgt>
<wgt id='3047'>0.22645E+02</wgt>
<wgt id='3048'>0.22642E+02</wgt>
<wgt id='3049'>0.22644E+02</wgt>
<wgt id='3050'>0.22628E+02</wgt>
<wgt id='3051'>0.22677E+02</wgt>
<wgt id='3052'>0.22645E+02</wgt>
<wgt id='3053'>0.22634E+02</wgt>
<wgt id='3054'>0.22637E+02</wgt>
<wgt id='3055'>0.22661E+02</wgt>
<wgt id='3056'>0.22652E+02</wgt>
<wgt id='3057'>0.22629E+02</wgt>
<wgt id='3058'>0.22644E+02</wgt>
<wgt id='3059'>0.22642E+02</wgt>
<wgt id='3060'>0.22649E+02</wgt>
<wgt id='3061'>0.22638E+02</wgt>
<wgt id='3062'>0.22655E+02</wgt>
<wgt id='3063'>0.22647E+02</wgt>
<wgt id='3064'>0.22638E+02</wgt>
<wgt id='3065'>0.22640E+02</wgt>
<wgt id='3066'>0.22646E+02</wgt>
<wgt id='3067'>0.22628E+02</wgt>
<wgt id='3068'>0.22652E+02</wgt>
<wgt id='3069'>0.22641E+02</wgt>
<wgt id='3070'>0.22647E+02</wgt>
<wgt id='3071'>0.22643E+02</wgt>
<wgt id='3072'>0.22647E+02</wgt>
<wgt id='3073'>0.22640E+02</wgt>
<wgt id='3074'>0.22650E+02</wgt>
<wgt id='3075'>0.22643E+02</wgt>
<wgt id='3076'>0.22643E+02</wgt>
<wgt id='3077'>0.22648E+02</wgt>
<wgt id='3078'>0.22648E+02</wgt>
<wgt id='3079'>0.22649E+02</wgt>
<wgt id='3080'>0.22643E+02</wgt>
<wgt id='3081'>0.22648E+02</wgt>
<wgt id='3082'>0.22645E+02</wgt>
<wgt id='3083'>0.22644E+02</wgt>
<wgt id='3084'>0.22647E+02</wgt>
<wgt id='3085'>0.22642E+02</wgt>
<wgt id='3086'>0.22649E+02</wgt>
<wgt id='3087'>0.22650E+02</wgt>
<wgt id='3088'>0.22643E+02</wgt>
<wgt id='3089'>0.22648E+02</wgt>
<wgt id='3090'>0.22644E+02</wgt>
<wgt id='3091'>0.22644E+02</wgt>
<wgt id='3092'>0.22648E+02</wgt>
<wgt id='3093'>0.22644E+02</wgt>
<wgt id='3094'>0.22647E+02</wgt>
<wgt id='3095'>0.22644E+02</wgt>
<wgt id='3096'>0.22643E+02</wgt>
<wgt id='3097'>0.22641E+02</wgt>
<wgt id='3098'>0.22647E+02</wgt>
<wgt id='3099'>0.22648E+02</wgt>
<wgt id='3100'>0.22644E+02</wgt>
<wgt id='3101'>0.22036E+02</wgt>
<wgt id='3102'>0.23337E+02</wgt>
<wgt id='5000'>0.21405E+02</wgt>
<wgt id='5001'>0.21340E+02</wgt>
<wgt id='5002'>0.21393E+02</wgt>
<wgt id='5003'>0.21296E+02</wgt>
<wgt id='5004'>0.21447E+02</wgt>
<wgt id='5005'>0.20999E+02</wgt>
<wgt id='5006'>0.21577E+02</wgt>
<wgt id='5007'>0.21463E+02</wgt>
<wgt id='5008'>0.21224E+02</wgt>
<wgt id='5009'>0.21570E+02</wgt>
<wgt id='5010'>0.21291E+02</wgt>
<wgt id='5011'>0.21403E+02</wgt>
<wgt id='5012'>0.21379E+02</wgt>
<wgt id='5013'>0.21221E+02</wgt>
<wgt id='5014'>0.21372E+02</wgt>
<wgt id='5015'>0.21497E+02</wgt>
<wgt id='5016'>0.21108E+02</wgt>
<wgt id='5017'>0.21377E+02</wgt>
<wgt id='5018'>0.21436E+02</wgt>
<wgt id='5019'>0.21398E+02</wgt>
<wgt id='5020'>0.21397E+02</wgt>
<wgt id='5021'>0.21442E+02</wgt>
<wgt id='5022'>0.21380E+02</wgt>
<wgt id='5023'>0.21336E+02</wgt>
<wgt id='5024'>0.21476E+02</wgt>
<wgt id='5025'>0.21431E+02</wgt>
<wgt id='5026'>0.21383E+02</wgt>
<wgt id='5027'>0.21563E+02</wgt>
<wgt id='5028'>0.21137E+02</wgt>
<wgt id='5029'>0.21139E+02</wgt>
<wgt id='5030'>0.21563E+02</wgt>
<wgt id='5031'>0.21230E+02</wgt>
<wgt id='5032'>0.21655E+02</wgt>
<wgt id='5033'>0.21291E+02</wgt>
<wgt id='5034'>0.21503E+02</wgt>
<wgt id='5035'>0.21233E+02</wgt>
<wgt id='5036'>0.21536E+02</wgt>
<wgt id='5037'>0.21279E+02</wgt>
<wgt id='5038'>0.21539E+02</wgt>
<wgt id='5039'>0.21742E+02</wgt>
<wgt id='5040'>0.21225E+02</wgt>
<wgt id='5041'>0.21218E+02</wgt>
<wgt id='5042'>0.21437E+02</wgt>
<wgt id='5043'>0.21595E+02</wgt>
<wgt id='5044'>0.21003E+02</wgt>
<wgt id='5045'>0.21866E+02</wgt>
<wgt id='5046'>0.21160E+02</wgt>
<wgt id='5047'>0.21502E+02</wgt>
<wgt id='5048'>0.21418E+02</wgt>
<wgt id='5049'>0.21432E+02</wgt>
<wgt id='5050'>0.21435E+02</wgt>
<wgt id='5051'>0.21458E+02</wgt>
<wgt id='5052'>0.21390E+02</wgt>
<wgt id='5053'>0.21194E+02</wgt>
<wgt id='5054'>0.21745E+02</wgt>
<wgt id='5055'>0.21278E+02</wgt>
<wgt id='5056'>0.21534E+02</wgt>
<wgt id='5060'>0.20808E+02</wgt>
<wgt id='5070'>0.21958E+02</wgt>
<wgt id='4000'>0.22313E+02</wgt>
<wgt id='4001'>0.22331E+02</wgt>
<wgt id='4002'>0.22377E+02</wgt>
<wgt id='4003'>0.22625E+02</wgt>
<wgt id='4004'>0.22095E+02</wgt>
<wgt id='4005'>0.22373E+02</wgt>
<wgt id='4006'>0.22284E+02</wgt>
<wgt id='4007'>0.22496E+02</wgt>
<wgt id='4008'>0.22175E+02</wgt>
<wgt id='4009'>0.21996E+02</wgt>
<wgt id='4010'>0.22565E+02</wgt>
<wgt id='4011'>0.22627E+02</wgt>
<wgt id='4012'>0.22121E+02</wgt>
<wgt id='4013'>0.21755E+02</wgt>
<wgt id='4014'>0.22623E+02</wgt>
<wgt id='4015'>0.22538E+02</wgt>
<wgt id='4016'>0.22159E+02</wgt>
<wgt id='4017'>0.22091E+02</wgt>
<wgt id='4018'>0.22577E+02</wgt>
<wgt id='4019'>0.22554E+02</wgt>
<wgt id='4020'>0.22044E+02</wgt>
<wgt id='4021'>0.22353E+02</wgt>
<wgt id='4022'>0.22222E+02</wgt>
<wgt id='4023'>0.22239E+02</wgt>
<wgt id='4024'>0.22381E+02</wgt>
<wgt id='4025'>0.22189E+02</wgt>
<wgt id='4026'>0.22421E+02</wgt>
<wgt id='4027'>0.22276E+02</wgt>
<wgt id='4028'>0.22364E+02</wgt>
<wgt id='4029'>0.22219E+02</wgt>
<wgt id='4030'>0.22346E+02</wgt>
<wgt id='4031'>0.22347E+02</wgt>
<wgt id='4032'>0.22269E+02</wgt>
<wgt id='4033'>0.22276E+02</wgt>
<wgt id='4034'>0.22391E+02</wgt>
<wgt id='4035'>0.22456E+02</wgt>
<wgt id='4036'>0.22178E+02</wgt>
<wgt id='4037'>0.22418E+02</wgt>
<wgt id='4038'>0.22129E+02</wgt>
<wgt id='4039'>0.22296E+02</wgt>
<wgt id='4040'>0.22304E+02</wgt>
<wgt id='4041'>0.22425E+02</wgt>
<wgt id='4042'>0.22217E+02</wgt>
<wgt id='4043'>0.22371E+02</wgt>
<wgt id='4044'>0.22237E+02</wgt>
<wgt id='4045'>0.22190E+02</wgt>
<wgt id='4046'>0.22237E+02</wgt>
<wgt id='4047'>0.22066E+02</wgt>
<wgt id='4048'>0.22445E+02</wgt>
<wgt id='4049'>0.22347E+02</wgt>
<wgt id='4050'>0.21968E+02</wgt>
<wgt id='4051'>0.22290E+02</wgt>
<wgt id='4052'>0.22267E+02</wgt>
<wgt id='4053'>0.21728E+02</wgt>
<wgt id='4054'>0.22486E+02</wgt>
<wgt id='4055'>0.22150E+02</wgt>
<wgt id='4056'>0.22478E+02</wgt>
<wgt id='4060'>0.21648E+02</wgt>
<wgt id='4070'>0.22953E+02</wgt>
<wgt id='4080'>0.21742E+02</wgt>
<wgt id='6000'>0.22643E+02</wgt>
<wgt id='6001'>0.22648E+02</wgt>
<wgt id='6002'>0.22638E+02</wgt>
<wgt id='6003'>0.22656E+02</wgt>
<wgt id='6004'>0.22634E+02</wgt>
<wgt id='6005'>0.22715E+02</wgt>
<wgt id='6006'>0.22576E+02</wgt>
<wgt id='6007'>0.22553E+02</wgt>
<wgt id='6008'>0.22744E+02</wgt>
<wgt id='6009'>0.22688E+02</wgt>
<wgt id='6010'>0.22599E+02</wgt>
<wgt id='6011'>0.22679E+02</wgt>
<wgt id='6012'>0.22564E+02</wgt>
<wgt id='6013'>0.22626E+02</wgt>
<wgt id='6014'>0.22672E+02</wgt>
<wgt id='6015'>0.22584E+02</wgt>
<wgt id='6016'>0.22677E+02</wgt>
<wgt id='6017'>0.22552E+02</wgt>
<wgt id='6018'>0.22750E+02</wgt>
<wgt id='6019'>0.22676E+02</wgt>
<wgt id='6020'>0.22614E+02</wgt>
<wgt id='6021'>0.22611E+02</wgt>
<wgt id='6022'>0.22685E+02</wgt>
<wgt id='6023'>0.22518E+02</wgt>
<wgt id='6024'>0.22729E+02</wgt>
<wgt id='6025'>0.22480E+02</wgt>
<wgt id='6026'>0.22783E+02</wgt>
<wgt id='6027'>0.22684E+02</wgt>
<wgt id='6028'>0.22641E+02</wgt>
<wgt id='6029'>0.22718E+02</wgt>
<wgt id='6030'>0.22557E+02</wgt>
<wgt id='6031'>0.22609E+02</wgt>
<wgt id='6032'>0.22676E+02</wgt>
<wgt id='6033'>0.22695E+02</wgt>
<wgt id='6034'>0.22589E+02</wgt>
<wgt id='6035'>0.22642E+02</wgt>
<wgt id='6036'>0.22665E+02</wgt>
<wgt id='6037'>0.22680E+02</wgt>
<wgt id='6038'>0.22641E+02</wgt>
<wgt id='6039'>0.22621E+02</wgt>
<wgt id='6040'>0.22667E+02</wgt>
<wgt id='6041'>0.22573E+02</wgt>
<wgt id='6042'>0.22725E+02</wgt>
<wgt id='6043'>0.22863E+02</wgt>
<wgt id='6044'>0.22521E+02</wgt>
<wgt id='6045'>0.22621E+02</wgt>
<wgt id='6046'>0.22686E+02</wgt>
<wgt id='6047'>0.22642E+02</wgt>
<wgt id='6048'>0.22502E+02</wgt>
<wgt id='6049'>0.22644E+02</wgt>
<wgt id='6050'>0.22633E+02</wgt>
<wgt id='7000'>0.21393E+02</wgt>
<wgt id='7001'>0.21381E+02</wgt>
<wgt id='7002'>0.21409E+02</wgt>
<wgt id='7003'>0.21454E+02</wgt>
<wgt id='7004'>0.21333E+02</wgt>
<wgt id='7005'>0.21438E+02</wgt>
<wgt id='7006'>0.21375E+02</wgt>
<wgt id='7007'>0.21325E+02</wgt>
<wgt id='7008'>0.21460E+02</wgt>
<wgt id='7009'>0.21417E+02</wgt>
<wgt id='7010'>0.21370E+02</wgt>
<wgt id='7011'>0.21249E+02</wgt>
<wgt id='7012'>0.21455E+02</wgt>
<wgt id='7013'>0.21395E+02</wgt>
<wgt id='7014'>0.21390E+02</wgt>
<wgt id='7015'>0.21352E+02</wgt>
<wgt id='7016'>0.21438E+02</wgt>
<wgt id='7017'>0.21387E+02</wgt>
<wgt id='7018'>0.21395E+02</wgt>
<wgt id='7019'>0.21372E+02</wgt>
<wgt id='7020'>0.21421E+02</wgt>
<wgt id='7021'>0.21380E+02</wgt>
<wgt id='7022'>0.21402E+02</wgt>
<wgt id='7023'>0.21577E+02</wgt>
<wgt id='7024'>0.21215E+02</wgt>
<wgt id='7025'>0.21466E+02</wgt>
<wgt id='7026'>0.21215E+02</wgt>
<wgt id='7027'>0.21458E+02</wgt>
<wgt id='7028'>0.21354E+02</wgt>
<wgt id='7029'>0.21337E+02</wgt>
<wgt id='7030'>0.21544E+02</wgt>
<wgt id='7031'>0.21374E+02</wgt>
<wgt id='7032'>0.21431E+02</wgt>
<wgt id='7033'>0.21377E+02</wgt>
<wgt id='7034'>0.21427E+02</wgt>
<wgt id='7035'>0.21401E+02</wgt>
<wgt id='7036'>0.21392E+02</wgt>
<wgt id='7037'>0.21399E+02</wgt>
<wgt id='7038'>0.21386E+02</wgt>
<wgt id='7039'>0.21372E+02</wgt>
<wgt id='7040'>0.21409E+02</wgt>
<wgt id='7041'>0.21368E+02</wgt>
<wgt id='7042'>0.21400E+02</wgt>
<wgt id='7043'>0.21409E+02</wgt>
<wgt id='7044'>0.21300E+02</wgt>
<wgt id='7045'>0.21211E+02</wgt>
<wgt id='7046'>0.21460E+02</wgt>
<wgt id='7047'>0.21420E+02</wgt>
<wgt id='7048'>0.21370E+02</wgt>
<wgt id='7049'>0.21346E+02</wgt>
<wgt id='7050'>0.21371E+02</wgt>
<wgt id='7060'>0.31313E+02</wgt>
<wgt id='8000'>0.21583E+02</wgt>
<wgt id='8001'>0.21578E+02</wgt>
<wgt id='8002'>0.21588E+02</wgt>
<wgt id='8003'>0.21585E+02</wgt>
<wgt id='8004'>0.21583E+02</wgt>
<wgt id='8005'>0.21544E+02</wgt>
<wgt id='8006'>0.21579E+02</wgt>
<wgt id='8007'>0.21576E+02</wgt>
<wgt id='8008'>0.21619E+02</wgt>
<wgt id='8009'>0.21652E+02</wgt>
<wgt id='8010'>0.21578E+02</wgt>
<wgt id='8011'>0.21573E+02</wgt>
<wgt id='8012'>0.21547E+02</wgt>
<wgt id='8013'>0.21568E+02</wgt>
<wgt id='8014'>0.21586E+02</wgt>
<wgt id='8015'>0.21566E+02</wgt>
<wgt id='8016'>0.21590E+02</wgt>
<wgt id='8017'>0.21582E+02</wgt>
<wgt id='8018'>0.21594E+02</wgt>
<wgt id='8019'>0.21609E+02</wgt>
<wgt id='8020'>0.21537E+02</wgt>
<wgt id='8021'>0.21577E+02</wgt>
<wgt id='8022'>0.21500E+02</wgt>
<wgt id='8023'>0.21590E+02</wgt>
<wgt id='8024'>0.21594E+02</wgt>
<wgt id='8025'>0.21626E+02</wgt>
<wgt id='8026'>0.21619E+02</wgt>
<wgt id='8027'>0.21562E+02</wgt>
<wgt id='8028'>0.21593E+02</wgt>
<wgt id='8029'>0.21505E+02</wgt>
<wgt id='8500'>0.22462E+02</wgt>
<wgt id='8501'>0.22388E+02</wgt>
<wgt id='8502'>0.22640E+02</wgt>
<wgt id='8503'>0.22581E+02</wgt>
<wgt id='8504'>0.22401E+02</wgt>
<wgt id='8505'>0.22379E+02</wgt>
<wgt id='8506'>0.22437E+02</wgt>
<wgt id='8507'>0.22506E+02</wgt>
<wgt id='8508'>0.22622E+02</wgt>
<wgt id='8509'>0.22389E+02</wgt>
<wgt id='8510'>0.22707E+02</wgt>
<wgt id='8511'>0.22458E+02</wgt>
<wgt id='8512'>0.22286E+02</wgt>
<wgt id='8513'>0.22488E+02</wgt>
<wgt id='8514'>0.22359E+02</wgt>
<wgt id='8515'>0.22489E+02</wgt>
<wgt id='8516'>0.22505E+02</wgt>
<wgt id='8517'>0.22430E+02</wgt>
<wgt id='8518'>0.22391E+02</wgt>
<wgt id='8519'>0.22382E+02</wgt>
<wgt id='8520'>0.22454E+02</wgt>
<wgt id='8521'>0.22365E+02</wgt>
<wgt id='8522'>0.22497E+02</wgt>
<wgt id='8523'>0.22422E+02</wgt>
<wgt id='8524'>0.22454E+02</wgt>
<wgt id='8525'>0.22458E+02</wgt>
<wgt id='8526'>0.22426E+02</wgt>
<wgt id='8527'>0.22462E+02</wgt>
<wgt id='8528'>0.22420E+02</wgt>
<wgt id='8529'>0.22463E+02</wgt>
<wgt id='8530'>0.22454E+02</wgt>
<wgt id='8531'>0.22450E+02</wgt>
<wgt id='8532'>0.22463E+02</wgt>
<wgt id='8533'>0.22424E+02</wgt>
<wgt id='8534'>0.22472E+02</wgt>
<wgt id='8535'>0.22513E+02</wgt>
<wgt id='8536'>0.22452E+02</wgt>
<wgt id='8537'>0.22470E+02</wgt>
<wgt id='8538'>0.22445E+02</wgt>
<wgt id='8539'>0.22469E+02</wgt>
<wgt id='8540'>0.22469E+02</wgt>
<wgt id='8541'>0.22479E+02</wgt>
<wgt id='8542'>0.22484E+02</wgt>
<wgt id='8543'>0.22441E+02</wgt>
<wgt id='8544'>0.22492E+02</wgt>
<wgt id='8545'>0.22476E+02</wgt>
<wgt id='8546'>0.22483E+02</wgt>
<wgt id='8547'>0.22443E+02</wgt>
<wgt id='8548'>0.22446E+02</wgt>
<wgt id='8549'>0.22463E+02</wgt>
<wgt id='8550'>0.22457E+02</wgt>
<wgt id='8551'>0.22436E+02</wgt>
<wgt id='8552'>0.22461E+02</wgt>
<wgt id='8553'>0.22445E+02</wgt>
<wgt id='8554'>0.22448E+02</wgt>
<wgt id='8555'>0.22462E+02</wgt>
<wgt id='8556'>0.22459E+02</wgt>
<wgt id='8557'>0.22457E+02</wgt>
<wgt id='8558'>0.22492E+02</wgt>
<wgt id='8559'>0.22451E+02</wgt>
<wgt id='8560'>0.22432E+02</wgt>
<wgt id='8561'>0.22463E+02</wgt>
<wgt id='8562'>0.22441E+02</wgt>
<wgt id='8563'>0.22460E+02</wgt>
<wgt id='8564'>0.22452E+02</wgt>
<wgt id='8565'>0.22462E+02</wgt>
<wgt id='8566'>0.22457E+02</wgt>
<wgt id='8567'>0.22460E+02</wgt>
<wgt id='8568'>0.22475E+02</wgt>
<wgt id='8569'>0.22470E+02</wgt>
<wgt id='8570'>0.22457E+02</wgt>
<wgt id='8571'>0.22452E+02</wgt>
<wgt id='8572'>0.22452E+02</wgt>
<wgt id='8573'>0.22453E+02</wgt>
<wgt id='8574'>0.22458E+02</wgt>
<wgt id='8575'>0.22463E+02</wgt>
<wgt id='8576'>0.22457E+02</wgt>
<wgt id='8577'>0.22460E+02</wgt>
<wgt id='8578'>0.22461E+02</wgt>
<wgt id='8579'>0.22473E+02</wgt>
<wgt id='8580'>0.22464E+02</wgt>
<wgt id='8581'>0.22469E+02</wgt>
<wgt id='8582'>0.22450E+02</wgt>
<wgt id='8583'>0.22471E+02</wgt>
<wgt id='8584'>0.22469E+02</wgt>
<wgt id='8585'>0.22467E+02</wgt>
<wgt id='8586'>0.22473E+02</wgt>
<wgt id='8587'>0.22461E+02</wgt>
<wgt id='8588'>0.22458E+02</wgt>
<wgt id='8589'>0.22462E+02</wgt>
<wgt id='8590'>0.22462E+02</wgt>
<wgt id='8591'>0.22456E+02</wgt>
<wgt id='8592'>0.22459E+02</wgt>
<wgt id='8593'>0.22456E+02</wgt>
<wgt id='8594'>0.22464E+02</wgt>
<wgt id='8595'>0.22463E+02</wgt>
<wgt id='8596'>0.22457E+02</wgt>
<wgt id='8597'>0.22467E+02</wgt>
<wgt id='8598'>0.22465E+02</wgt>
<wgt id='8599'>0.22464E+02</wgt>
<wgt id='8600'>0.22462E+02</wgt>
<wgt id='8601'>0.21996E+02</wgt>
<wgt id='8602'>0.22892E+02</wgt>
<wgt id='9000'>0.21437E+02</wgt>
<wgt id='9001'>0.21475E+02</wgt>
<wgt id='9002'>0.21506E+02</wgt>
<wgt id='9003'>0.21302E+02</wgt>
<wgt id='9004'>0.21426E+02</wgt>
<wgt id='9005'>0.21544E+02</wgt>
<wgt id='9006'>0.21401E+02</wgt>
<wgt id='9007'>0.21398E+02</wgt>
<wgt id='9008'>0.21457E+02</wgt>
<wgt id='9009'>0.21439E+02</wgt>
<wgt id='9010'>0.21405E+02</wgt>
<wgt id='9011'>0.21617E+02</wgt>
<wgt id='9012'>0.21284E+02</wgt>
<wgt id='9013'>0.21250E+02</wgt>
<wgt id='9014'>0.21256E+02</wgt>
<wgt id='9015'>0.21385E+02</wgt>
<wgt id='9016'>0.21526E+02</wgt>
<wgt id='9017'>0.21432E+02</wgt>
<wgt id='9018'>0.21442E+02</wgt>
<wgt id='9019'>0.21432E+02</wgt>
<wgt id='9020'>0.21556E+02</wgt>
<wgt id='9021'>0.21390E+02</wgt>
<wgt id='9022'>0.21455E+02</wgt>
<wgt id='9023'>0.21404E+02</wgt>
<wgt id='9024'>0.21405E+02</wgt>
<wgt id='9025'>0.21465E+02</wgt>
<wgt id='9026'>0.21440E+02</wgt>
<wgt id='9027'>0.21413E+02</wgt>
<wgt id='9028'>0.21456E+02</wgt>
<wgt id='9029'>0.21449E+02</wgt>
<wgt id='9030'>0.21444E+02</wgt>
<wgt id='9031'>0.21440E+02</wgt>
<wgt id='9032'>0.21461E+02</wgt>
<wgt id='9033'>0.21464E+02</wgt>
<wgt id='9034'>0.21411E+02</wgt>
<wgt id='9035'>0.21460E+02</wgt>
<wgt id='9036'>0.21436E+02</wgt>
<wgt id='9037'>0.21459E+02</wgt>
<wgt id='9038'>0.21444E+02</wgt>
<wgt id='9039'>0.21444E+02</wgt>
<wgt id='9040'>0.21410E+02</wgt>
<wgt id='9041'>0.21434E+02</wgt>
<wgt id='9042'>0.21431E+02</wgt>
<wgt id='9043'>0.21421E+02</wgt>
<wgt id='9044'>0.21442E+02</wgt>
<wgt id='9045'>0.21436E+02</wgt>
<wgt id='9046'>0.21409E+02</wgt>
<wgt id='9047'>0.21431E+02</wgt>
<wgt id='9048'>0.21446E+02</wgt>
<wgt id='9049'>0.21424E+02</wgt>
<wgt id='9050'>0.21440E+02</wgt>
<wgt id='9051'>0.21443E+02</wgt>
<wgt id='9052'>0.21441E+02</wgt>
<wgt id='9053'>0.21435E+02</wgt>
<wgt id='9054'>0.21427E+02</wgt>
<wgt id='9055'>0.21432E+02</wgt>
<wgt id='9056'>0.21459E+02</wgt>
<wgt id='9057'>0.21439E+02</wgt>
<wgt id='9058'>0.21414E+02</wgt>
<wgt id='9059'>0.21428E+02</wgt>
<wgt id='9060'>0.21429E+02</wgt>
<wgt id='9061'>0.21440E+02</wgt>
<wgt id='9062'>0.21437E+02</wgt>
<wgt id='9063'>0.21446E+02</wgt>
<wgt id='9064'>0.21430E+02</wgt>
<wgt id='9065'>0.21436E+02</wgt>
<wgt id='9066'>0.21441E+02</wgt>
<wgt id='9067'>0.21447E+02</wgt>
<wgt id='9068'>0.21441E+02</wgt>
<wgt id='9069'>0.21451E+02</wgt>
<wgt id='9070'>0.21431E+02</wgt>
<wgt id='9071'>0.21456E+02</wgt>
<wgt id='9072'>0.21455E+02</wgt>
<wgt id='9073'>0.21428E+02</wgt>
<wgt id='9074'>0.21436E+02</wgt>
<wgt id='9075'>0.21435E+02</wgt>
<wgt id='9076'>0.21437E+02</wgt>
<wgt id='9077'>0.21439E+02</wgt>
<wgt id='9078'>0.21436E+02</wgt>
<wgt id='9079'>0.21435E+02</wgt>
<wgt id='9080'>0.21454E+02</wgt>
<wgt id='9081'>0.21435E+02</wgt>
<wgt id='9082'>0.21445E+02</wgt>
<wgt id='9083'>0.21429E+02</wgt>
<wgt id='9084'>0.21431E+02</wgt>
<wgt id='9085'>0.21431E+02</wgt>
<wgt id='9086'>0.21439E+02</wgt>
<wgt id='9087'>0.21423E+02</wgt>
<wgt id='9088'>0.21430E+02</wgt>
<wgt id='9089'>0.21430E+02</wgt>
<wgt id='9090'>0.21438E+02</wgt>
<wgt id='9091'>0.21433E+02</wgt>
<wgt id='9092'>0.21433E+02</wgt>
<wgt id='9093'>0.21433E+02</wgt>
<wgt id='9094'>0.21435E+02</wgt>
<wgt id='9095'>0.21438E+02</wgt>
<wgt id='9096'>0.21432E+02</wgt>
<wgt id='9097'>0.21439E+02</wgt>
<wgt id='9098'>0.21435E+02</wgt>
<wgt id='9099'>0.21433E+02</wgt>
<wgt id='9100'>0.21436E+02</wgt>
<wgt id='9101'>0.21047E+02</wgt>
<wgt id='9102'>0.21773E+02</wgt>
<wgt id='10000'>0.22462E+02</wgt>
<wgt id='10001'>0.22543E+02</wgt>
<wgt id='10002'>0.22434E+02</wgt>
<wgt id='10003'>0.22468E+02</wgt>
<wgt id='10004'>0.22462E+02</wgt>
<wgt id='10005'>0.22908E+02</wgt>
<wgt id='10006'>0.22441E+02</wgt>
<wgt id='10007'>0.22460E+02</wgt>
<wgt id='10008'>0.22490E+02</wgt>
<wgt id='10009'>0.22406E+02</wgt>
<wgt id='10010'>0.22482E+02</wgt>
<wgt id='10011'>0.22408E+02</wgt>
<wgt id='10012'>0.22430E+02</wgt>
<wgt id='10013'>0.22463E+02</wgt>
<wgt id='10014'>0.22462E+02</wgt>
<wgt id='10015'>0.22482E+02</wgt>
<wgt id='10016'>0.22456E+02</wgt>
<wgt id='10017'>0.22412E+02</wgt>
<wgt id='10018'>0.22488E+02</wgt>
<wgt id='10019'>0.22379E+02</wgt>
<wgt id='10020'>0.22458E+02</wgt>
<wgt id='10021'>0.22465E+02</wgt>
<wgt id='10022'>0.22448E+02</wgt>
<wgt id='10023'>0.22474E+02</wgt>
<wgt id='10024'>0.22464E+02</wgt>
<wgt id='10025'>0.22451E+02</wgt>
<wgt id='10026'>0.22470E+02</wgt>
<wgt id='10027'>0.22467E+02</wgt>
<wgt id='10028'>0.22556E+02</wgt>
<wgt id='10029'>0.22482E+02</wgt>
<wgt id='10030'>0.22450E+02</wgt>
<wgt id='10031'>0.21996E+02</wgt>
<wgt id='10032'>0.22892E+02</wgt>
<wgt id='11000'>0.21436E+02</wgt>
<wgt id='11001'>0.21366E+02</wgt>
<wgt id='11002'>0.21485E+02</wgt>
<wgt id='11003'>0.21426E+02</wgt>
<wgt id='11004'>0.21453E+02</wgt>
<wgt id='11005'>0.21229E+02</wgt>
<wgt id='11006'>0.21436E+02</wgt>
<wgt id='11007'>0.21404E+02</wgt>
<wgt id='11008'>0.21412E+02</wgt>
<wgt id='11009'>0.21375E+02</wgt>
<wgt id='11010'>0.21433E+02</wgt>
<wgt id='11011'>0.21339E+02</wgt>
<wgt id='11012'>0.21444E+02</wgt>
<wgt id='11013'>0.21495E+02</wgt>
<wgt id='11014'>0.21385E+02</wgt>
<wgt id='11015'>0.21403E+02</wgt>
<wgt id='11016'>0.21417E+02</wgt>
<wgt id='11017'>0.21573E+02</wgt>
<wgt id='11018'>0.21440E+02</wgt>
<wgt id='11019'>0.21441E+02</wgt>
<wgt id='11020'>0.21451E+02</wgt>
<wgt id='11021'>0.21482E+02</wgt>
<wgt id='11022'>0.21745E+02</wgt>
<wgt id='11023'>0.21433E+02</wgt>
<wgt id='11024'>0.21402E+02</wgt>
<wgt id='11025'>0.21398E+02</wgt>
<wgt id='11026'>0.21435E+02</wgt>
<wgt id='11027'>0.21436E+02</wgt>
<wgt id='11028'>0.21414E+02</wgt>
<wgt id='11029'>0.21383E+02</wgt>
<wgt id='11030'>0.21439E+02</wgt>
<wgt id='11031'>0.21047E+02</wgt>
<wgt id='11032'>0.21773E+02</wgt>
<wgt id='12000'>0.22869E+02</wgt>
<wgt id='12001'>0.22843E+02</wgt>
<wgt id='12002'>0.22894E+02</wgt>
<wgt id='12003'>0.22906E+02</wgt>
<wgt id='12004'>0.22831E+02</wgt>
<wgt id='12005'>0.22903E+02</wgt>
<wgt id='12006'>0.22835E+02</wgt>
<wgt id='12007'>0.22927E+02</wgt>
<wgt id='12008'>0.22811E+02</wgt>
<wgt id='12009'>0.22886E+02</wgt>
<wgt id='12010'>0.22851E+02</wgt>
<wgt id='12011'>0.22816E+02</wgt>
<wgt id='12012'>0.22927E+02</wgt>
<wgt id='12013'>0.22782E+02</wgt>
<wgt id='12014'>0.22956E+02</wgt>
<wgt id='12015'>0.22894E+02</wgt>
<wgt id='12016'>0.22813E+02</wgt>
<wgt id='12017'>0.22945E+02</wgt>
<wgt id='12018'>0.22794E+02</wgt>
<wgt id='12019'>0.22799E+02</wgt>
<wgt id='12020'>0.22930E+02</wgt>
<wgt id='12021'>0.22910E+02</wgt>
<wgt id='12022'>0.22809E+02</wgt>
<wgt id='12023'>0.22766E+02</wgt>
<wgt id='12024'>0.22886E+02</wgt>
<wgt id='12025'>0.22895E+02</wgt>
<wgt id='12026'>0.22871E+02</wgt>
<wgt id='12027'>0.22911E+02</wgt>
<wgt id='12028'>0.22841E+02</wgt>
<wgt id='12050'>0.22869E+02</wgt>
<wgt id='12051'>0.22882E+02</wgt>
<wgt id='12052'>0.22835E+02</wgt>
<wgt id='12053'>0.22880E+02</wgt>
<wgt id='12054'>0.22846E+02</wgt>
<wgt id='12055'>0.22894E+02</wgt>
<wgt id='12056'>0.22805E+02</wgt>
<wgt id='12057'>0.22807E+02</wgt>
<wgt id='12058'>0.22928E+02</wgt>
<wgt id='12059'>0.22865E+02</wgt>
<wgt id='12060'>0.22877E+02</wgt>
<wgt id='12061'>0.22848E+02</wgt>
<wgt id='12062'>0.22880E+02</wgt>
<wgt id='12063'>0.22742E+02</wgt>
<wgt id='13000'>0.21447E+02</wgt>
<wgt id='13001'>0.21430E+02</wgt>
<wgt id='13002'>0.21459E+02</wgt>
<wgt id='13003'>0.21460E+02</wgt>
<wgt id='13004'>0.21430E+02</wgt>
<wgt id='13005'>0.21486E+02</wgt>
<wgt id='13006'>0.21404E+02</wgt>
<wgt id='13007'>0.21531E+02</wgt>
<wgt id='13008'>0.21360E+02</wgt>
<wgt id='13009'>0.21425E+02</wgt>
<wgt id='13010'>0.21466E+02</wgt>
<wgt id='13011'>0.21491E+02</wgt>
<wgt id='13012'>0.21398E+02</wgt>
<wgt id='13013'>0.21383E+02</wgt>
<wgt id='13014'>0.21505E+02</wgt>
<wgt id='13015'>0.21418E+02</wgt>
<wgt id='13016'>0.21445E+02</wgt>
<wgt id='13017'>0.21427E+02</wgt>
<wgt id='13018'>0.21459E+02</wgt>
<wgt id='13019'>0.21397E+02</wgt>
<wgt id='13020'>0.21490E+02</wgt>
<wgt id='13021'>0.21364E+02</wgt>
<wgt id='13022'>0.21506E+02</wgt>
<wgt id='13023'>0.21424E+02</wgt>
<wgt id='13024'>0.21470E+02</wgt>
<wgt id='13025'>0.21357E+02</wgt>
<wgt id='13026'>0.21503E+02</wgt>
<wgt id='13027'>0.21425E+02</wgt>
<wgt id='13028'>0.21480E+02</wgt>
<wgt id='13050'>0.21447E+02</wgt>
<wgt id='13051'>0.21477E+02</wgt>
<wgt id='13052'>0.21317E+02</wgt>
<wgt id='13053'>0.21471E+02</wgt>
<wgt id='13054'>0.21418E+02</wgt>
<wgt id='13055'>0.21360E+02</wgt>
<wgt id='13056'>0.21446E+02</wgt>
<wgt id='13057'>0.21394E+02</wgt>
<wgt id='13058'>0.21530E+02</wgt>
<wgt id='13059'>0.21434E+02</wgt>
<wgt id='13060'>0.21368E+02</wgt>
<wgt id='13061'>0.21410E+02</wgt>
<wgt id='13062'>0.21549E+02</wgt>
<wgt id='13063'>0.21371E+02</wgt>
<wgt id='14000'>0.22222E+02</wgt>
<wgt id='14001'>0.22218E+02</wgt>
<wgt id='14002'>0.22215E+02</wgt>
<wgt id='14003'>0.22211E+02</wgt>
<wgt id='14004'>0.22208E+02</wgt>
<wgt id='14005'>0.22204E+02</wgt>
<wgt id='14006'>0.22201E+02</wgt>
<wgt id='14007'>0.22197E+02</wgt>
<wgt id='14008'>0.22193E+02</wgt>
<wgt id='14009'>0.22190E+02</wgt>
<wgt id='14010'>0.22186E+02</wgt>
<wgt id='14011'>0.22183E+02</wgt>
<wgt id='14012'>0.22179E+02</wgt>
<wgt id='14013'>0.22176E+02</wgt>
<wgt id='14014'>0.22172E+02</wgt>
<wgt id='14015'>0.22169E+02</wgt>
<wgt id='14016'>0.22165E+02</wgt>
<wgt id='14017'>0.22161E+02</wgt>
<wgt id='14018'>0.22158E+02</wgt>
<wgt id='14019'>0.22154E+02</wgt>
<wgt id='14020'>0.22151E+02</wgt>
<wgt id='14021'>0.22147E+02</wgt>
<wgt id='14022'>0.22144E+02</wgt>
<wgt id='14023'>0.22140E+02</wgt>
<wgt id='14024'>0.22137E+02</wgt>
<wgt id='14025'>0.22133E+02</wgt>
<wgt id='14026'>0.22130E+02</wgt>
<wgt id='14027'>0.22126E+02</wgt>
<wgt id='14028'>0.22122E+02</wgt>
<wgt id='14029'>0.22119E+02</wgt>
<wgt id='14030'>0.22115E+02</wgt>
<wgt id='15000'>0.21200E+02</wgt>
<wgt id='15001'>0.21239E+02</wgt>
<wgt id='15002'>0.21269E+02</wgt>
<wgt id='15003'>0.21068E+02</wgt>
<wgt id='15004'>0.21190E+02</wgt>
<wgt id='15005'>0.21307E+02</wgt>
<wgt id='15006'>0.21164E+02</wgt>
<wgt id='15007'>0.21160E+02</wgt>
<wgt id='15008'>0.21219E+02</wgt>
<wgt id='15009'>0.21202E+02</wgt>
<wgt id='15010'>0.21169E+02</wgt>
<wgt id='15011'>0.21377E+02</wgt>
<wgt id='15012'>0.21048E+02</wgt>
<wgt id='15013'>0.21015E+02</wgt>
<wgt id='15014'>0.21020E+02</wgt>
<wgt id='15015'>0.21149E+02</wgt>
<wgt id='15016'>0.21287E+02</wgt>
<wgt id='15017'>0.21196E+02</wgt>
<wgt id='15018'>0.21206E+02</wgt>
<wgt id='15019'>0.21195E+02</wgt>
<wgt id='15020'>0.21317E+02</wgt>
<wgt id='15021'>0.21153E+02</wgt>
<wgt id='15022'>0.21219E+02</wgt>
<wgt id='15023'>0.21166E+02</wgt>
<wgt id='15024'>0.21169E+02</wgt>
<wgt id='15025'>0.21229E+02</wgt>
<wgt id='15026'>0.21204E+02</wgt>
<wgt id='15027'>0.21175E+02</wgt>
<wgt id='15028'>0.21219E+02</wgt>
<wgt id='15029'>0.21213E+02</wgt>
<wgt id='15030'>0.21208E+02</wgt>
<wgt id='15031'>0.21202E+02</wgt>
<wgt id='15032'>0.21224E+02</wgt>
<wgt id='15033'>0.21228E+02</wgt>
<wgt id='15034'>0.21175E+02</wgt>
<wgt id='15035'>0.21224E+02</wgt>
<wgt id='15036'>0.21199E+02</wgt>
<wgt id='15037'>0.21222E+02</wgt>
<wgt id='15038'>0.21208E+02</wgt>
<wgt id='15039'>0.21208E+02</wgt>
<wgt id='15040'>0.21173E+02</wgt>
<wgt id='15041'>0.21198E+02</wgt>
<wgt id='15042'>0.21194E+02</wgt>
<wgt id='15043'>0.21184E+02</wgt>
<wgt id='15044'>0.21205E+02</wgt>
<wgt id='15045'>0.21199E+02</wgt>
<wgt id='15046'>0.21172E+02</wgt>
<wgt id='15047'>0.21194E+02</wgt>
<wgt id='15048'>0.21209E+02</wgt>
<wgt id='15049'>0.21187E+02</wgt>
<wgt id='15050'>0.21203E+02</wgt>
<wgt id='15051'>0.21207E+02</wgt>
<wgt id='15052'>0.21204E+02</wgt>
<wgt id='15053'>0.21198E+02</wgt>
<wgt id='15054'>0.21190E+02</wgt>
<wgt id='15055'>0.21196E+02</wgt>
<wgt id='15056'>0.21223E+02</wgt>
<wgt id='15057'>0.21202E+02</wgt>
<wgt id='15058'>0.21177E+02</wgt>
<wgt id='15059'>0.21192E+02</wgt>
<wgt id='15060'>0.21192E+02</wgt>
<wgt id='15061'>0.21204E+02</wgt>
<wgt id='15062'>0.21201E+02</wgt>
<wgt id='15063'>0.21209E+02</wgt>
<wgt id='15064'>0.21193E+02</wgt>
<wgt id='15065'>0.21199E+02</wgt>
<wgt id='15066'>0.21204E+02</wgt>
<wgt id='15067'>0.21210E+02</wgt>
<wgt id='15068'>0.21204E+02</wgt>
<wgt id='15069'>0.21215E+02</wgt>
<wgt id='15070'>0.21195E+02</wgt>
<wgt id='15071'>0.21220E+02</wgt>
<wgt id='15072'>0.21218E+02</wgt>
<wgt id='15073'>0.21192E+02</wgt>
<wgt id='15074'>0.21199E+02</wgt>
<wgt id='15075'>0.21199E+02</wgt>
<wgt id='15076'>0.21201E+02</wgt>
<wgt id='15077'>0.21202E+02</wgt>
<wgt id='15078'>0.21199E+02</wgt>
<wgt id='15079'>0.21198E+02</wgt>
<wgt id='15080'>0.21217E+02</wgt>
<wgt id='15081'>0.21198E+02</wgt>
<wgt id='15082'>0.21208E+02</wgt>
<wgt id='15083'>0.21192E+02</wgt>
<wgt id='15084'>0.21194E+02</wgt>
<wgt id='15085'>0.21194E+02</wgt>
<wgt id='15086'>0.21202E+02</wgt>
<wgt id='15087'>0.21186E+02</wgt>
<wgt id='15088'>0.21193E+02</wgt>
<wgt id='15089'>0.21193E+02</wgt>
<wgt id='15090'>0.21202E+02</wgt>
<wgt id='15091'>0.21197E+02</wgt>
<wgt id='15092'>0.21196E+02</wgt>
<wgt id='15093'>0.21196E+02</wgt>
<wgt id='15094'>0.21198E+02</wgt>
<wgt id='15095'>0.21202E+02</wgt>
<wgt id='15096'>0.21195E+02</wgt>
<wgt id='15097'>0.21202E+02</wgt>
<wgt id='15098'>0.21198E+02</wgt>
<wgt id='15099'>0.21196E+02</wgt>
<wgt id='15100'>0.21199E+02</wgt>
<wgt id='15101'>0.21200E+02</wgt>
<wgt id='15102'>0.21198E+02</wgt>
<wgt id='15103'>0.21200E+02</wgt>
<wgt id='15104'>0.21200E+02</wgt>
<wgt id='15105'>0.21201E+02</wgt>
<wgt id='15106'>0.21200E+02</wgt>
<wgt id='15107'>0.21199E+02</wgt>
<wgt id='1500'>0.22419E+02</wgt>
<wgt id='1501'>0.20935E+02</wgt>
<wgt id='1502'>0.22478E+02</wgt>
<wgt id='1503'>0.22318E+02</wgt>
<wgt id='1504'>0.22107E+02</wgt>
<wgt id='1505'>0.20200E+02</wgt>
<wgt id='1506'>0.22475E+02</wgt>
<wgt id='1507'>0.22725E+02</wgt>
<wgt id='1508'>0.22378E+02</wgt>
<wgt id='1509'>0.22416E+02</wgt>
<wgt id='1510'>0.21858E+02</wgt>
<wgt id='1511'>0.21972E+02</wgt>
<wgt id='1512'>0.22666E+02</wgt>
<wgt id='1513'>0.22611E+02</wgt>
<wgt id='1514'>0.22008E+02</wgt>
<wgt id='1515'>0.22545E+02</wgt>
<wgt id='1516'>0.22765E+02</wgt>
<wgt id='1517'>0.22115E+02</wgt>
<wgt id='1518'>0.22331E+02</wgt>
<wgt id='1519'>0.22666E+02</wgt>
<wgt id='1520'>0.22796E+02</wgt>
<wgt id='1521'>0.22522E+02</wgt>
<wgt id='1522'>0.22238E+02</wgt>
<wgt id='1523'>0.23747E+02</wgt>
<wgt id='1524'>0.22209E+02</wgt>
<wgt id='1525'>0.22594E+02</wgt>
<wgt id='1526'>0.22126E+02</wgt>
<wgt id='1527'>0.22310E+02</wgt>
<wgt id='1528'>0.22312E+02</wgt>
<wgt id='1529'>0.22282E+02</wgt>
<wgt id='1530'>0.22816E+02</wgt>
<wgt id='1531'>0.22308E+02</wgt>
<wgt id='1532'>0.21967E+02</wgt>
<wgt id='1533'>0.22745E+02</wgt>
<wgt id='1534'>0.22570E+02</wgt>
<wgt id='1535'>0.23108E+02</wgt>
<wgt id='1536'>0.22901E+02</wgt>
<wgt id='1537'>0.22664E+02</wgt>
<wgt id='1538'>0.22452E+02</wgt>
<wgt id='1539'>0.21728E+02</wgt>
<wgt id='1540'>0.22623E+02</wgt>
<wgt id='1541'>0.22452E+02</wgt>
<wgt id='1542'>0.22580E+02</wgt>
<wgt id='1543'>0.22428E+02</wgt>
<wgt id='1544'>0.22192E+02</wgt>
<wgt id='1545'>0.22628E+02</wgt>
<wgt id='1546'>0.22627E+02</wgt>
<wgt id='1547'>0.22059E+02</wgt>
<wgt id='1548'>0.22127E+02</wgt>
<wgt id='1549'>0.22556E+02</wgt>
<wgt id='1550'>0.22407E+02</wgt>
<wgt id='1551'>0.22320E+02</wgt>
<wgt id='1552'>0.22218E+02</wgt>
<wgt id='1553'>0.22873E+02</wgt>
<wgt id='1554'>0.22317E+02</wgt>
<wgt id='1555'>0.22406E+02</wgt>
<wgt id='1556'>0.21973E+02</wgt>
<wgt id='1557'>0.23083E+02</wgt>
<wgt id='1558'>0.22168E+02</wgt>
<wgt id='1559'>0.22732E+02</wgt>
<wgt id='1560'>0.22343E+02</wgt>
<wgt id='1561'>0.22711E+02</wgt>
<wgt id='1562'>0.22460E+02</wgt>
<wgt id='1563'>0.22780E+02</wgt>
<wgt id='1564'>0.22119E+02</wgt>
<wgt id='1565'>0.22650E+02</wgt>
<wgt id='1566'>0.22538E+02</wgt>
<wgt id='1567'>0.23494E+02</wgt>
<wgt id='1568'>0.22223E+02</wgt>
<wgt id='1569'>0.21935E+02</wgt>
<wgt id='1570'>0.22286E+02</wgt>
<wgt id='1571'>0.22757E+02</wgt>
<wgt id='1572'>0.22309E+02</wgt>
<wgt id='1573'>0.21111E+02</wgt>
<wgt id='1574'>0.22630E+02</wgt>
<wgt id='1575'>0.22213E+02</wgt>
<wgt id='1576'>0.21820E+02</wgt>
<wgt id='1577'>0.22484E+02</wgt>
<wgt id='1578'>0.23095E+02</wgt>
<wgt id='1579'>0.22313E+02</wgt>
<wgt id='1580'>0.22512E+02</wgt>
<wgt id='1581'>0.22554E+02</wgt>
<wgt id='1582'>0.22161E+02</wgt>
<wgt id='1583'>0.22586E+02</wgt>
<wgt id='1584'>0.22513E+02</wgt>
<wgt id='1585'>0.21934E+02</wgt>
<wgt id='1586'>0.22323E+02</wgt>
<wgt id='1587'>0.22352E+02</wgt>
<wgt id='1588'>0.22468E+02</wgt>
<wgt id='1589'>0.22809E+02</wgt>
<wgt id='1590'>0.22234E+02</wgt>
<wgt id='1591'>0.21959E+02</wgt>
<wgt id='1592'>0.22792E+02</wgt>
<wgt id='1593'>0.22338E+02</wgt>
<wgt id='1594'>0.22936E+02</wgt>
<wgt id='1595'>0.22130E+02</wgt>
<wgt id='1596'>0.22775E+02</wgt>
<wgt id='1597'>0.22441E+02</wgt>
<wgt id='1598'>0.23143E+02</wgt>
<wgt id='1599'>0.22923E+02</wgt>
<wgt id='1600'>0.22233E+02</wgt>
<wgt id='1601'>0.22039E+02</wgt>
<wgt id='1602'>0.22608E+02</wgt>
<wgt id='1700'>0.21482E+02</wgt>
<wgt id='1800'>0.24639E+02</wgt>
<wgt id='1850'>0.29680E+02</wgt>
<wgt id='1900'>0.24745E+02</wgt>
<wgt id='1950'>0.28781E+02</wgt>
</rwgt>
</event>
<event>
      4   9999  2.16956E+01  9.39574E+00 -1.00000E+00  1.94761E-01
      21    -1     0     0   502   512  0.000000000E+00  0.000000000E+00  4.020337606E+01  4.020337606E+01  0.000000000E+00  0.00000E+00  9.000E+00
      21    -1     0     0   501   502  0.000000000E+00  0.000000000E+00 -1.882194685E+02  1.882194685E+02  0.000000000E+00  0.00000E+00  9.000E+00
      25     1     1     2     0     0 -8.385301342E+00  4.238712890E+00 -1.660707443E+02  2.080697018E+02  1.250009149E+02  0.00000E+00  9.000E+00
      21     1     1     2   501   512  8.385301342E+00 -4.238712890E+00  1.805465186E+01  2.035314274E+01  3.371747881E-07  0.00000E+00  9.000E+00
#rwgt            1           1   24.384121191835440                1        3839           0
<rwgt>
<wgt id='1001'>0.21696E+02</wgt>
<wgt id='1002'>0.20644E+02</wgt>
<wgt id='1003'>0.22498E+02</wgt>
<wgt id='1004'>0.19236E+02</wgt>
<wgt id='1005'>0.18561E+02</wgt>
<wgt id='1006'>0.19673E+02</wgt>
<wgt id='1007'>0.24457E+02</wgt>
<wgt id='1008'>0.22806E+02</wgt>
<wgt id='1009'>0.25860E+02</wgt>
<wgt id='2000'>0.21696E+02</wgt>
<wgt id='2001'>0.21664E+02</wgt>
<wgt id='2002'>0.21765E+02</wgt>
<wgt id='2003'>0.21749E+02</wgt>
<wgt id='2004'>0.21709E+02</wgt>
<wgt id='2005'>0.21666E+02</wgt>
<wgt id='2006'>0.21659E+02</wgt>
<wgt id='2007'>0.21644E+02</wgt>
<wgt id='2008'>0.21695E+02</wgt>
<wgt id='2009'>0.21695E+02</wgt>
<wgt id='2010'>0.21675E+02</wgt>
<wgt id='2011'>0.21772E+02</wgt>
<wgt id='2012'>0.21774E+02</wgt>
<wgt id='2013'>0.21798E+02</wgt>
<wgt id='2014'>0.21749E+02</wgt>
<wgt id='2015'>0.21735E+02</wgt>
<wgt id='2016'>0.21686E+02</wgt>
<wgt id='2017'>0.21695E+02</wgt>
<wgt id='2018'>0.21743E+02</wgt>
<wgt id='2019'>0.21689E+02</wgt>
<wgt id='2020'>0.21762E+02</wgt>
<wgt id='2021'>0.21664E+02</wgt>
<wgt id='2022'>0.21754E+02</wgt>
<wgt id='2023'>0.21732E+02</wgt>
<wgt id='2024'>0.21698E+02</wgt>
<wgt id='2025'>0.21768E+02</wgt>
<wgt id='2026'>0.21742E+02</wgt>
<wgt id='2027'>0.21673E+02</wgt>
<wgt id='2028'>0.21662E+02</wgt>
<wgt id='2029'>0.21713E+02</wgt>
<wgt id='2030'>0.21703E+02</wgt>
<wgt id='2031'>0.21711E+02</wgt>
<wgt id='2032'>0.21690E+02</wgt>
<wgt id='2033'>0.21700E+02</wgt>
<wgt id='2034'>0.21704E+02</wgt>
<wgt id='2035'>0.21692E+02</wgt>
<wgt id='2036'>0.21698E+02</wgt>
<wgt id='2037'>0.21702E+02</wgt>
<wgt id='2038'>0.21698E+02</wgt>
<wgt id='2039'>0.21692E+02</wgt>
<wgt id='2040'>0.21694E+02</wgt>
<wgt id='2041'>0.21690E+02</wgt>
<wgt id='2042'>0.21681E+02</wgt>
<wgt id='2043'>0.21702E+02</wgt>
<wgt id='2044'>0.21706E+02</wgt>
<wgt id='2045'>0.21695E+02</wgt>
<wgt id='2046'>0.21706E+02</wgt>
<wgt id='2047'>0.21704E+02</wgt>
<wgt id='2048'>0.21695E+02</wgt>
<wgt id='2049'>0.21695E+02</wgt>
<wgt id='2050'>0.21704E+02</wgt>
<wgt id='2051'>0.21702E+02</wgt>
<wgt id='2052'>0.21689E+02</wgt>
<wgt id='2053'>0.21694E+02</wgt>
<wgt id='2054'>0.21696E+02</wgt>
<wgt id='2055'>0.21697E+02</wgt>
<wgt id='2056'>0.21696E+02</wgt>
<wgt id='2057'>0.21694E+02</wgt>
<wgt id='2058'>0.21699E+02</wgt>
<wgt id='2059'>0.21693E+02</wgt>
<wgt id='2060'>0.21696E+02</wgt>
<wgt id='2061'>0.21693E+02</wgt>
<wgt id='2062'>0.21699E+02</wgt>
<wgt id='2063'>0.21693E+02</wgt>
<wgt id='2064'>0.21694E+02</wgt>
<wgt id='2065'>0.21701E+02</wgt>
<wgt id='2066'>0.21695E+02</wgt>
<wgt id='2067'>0.21695E+02</wgt>
<wgt id='2068'>0.21699E+02</wgt>
<wgt id='2069'>0.21694E+02</wgt>
<wgt id='2070'>0.21693E+02</wgt>
<wgt id='2071'>0.21688E+02</wgt>
<wgt id='2072'>0.21697E+02</wgt>
<wgt id='2073'>0.21696E+02</wgt>
<wgt id='2074'>0.21689E+02</wgt>
<wgt id='2075'>0.21696E+02</wgt>
<wgt id='2076'>0.21692E+02</wgt>
<wgt id='2077'>0.21694E+02</wgt>
<wgt id='2078'>0.21696E+02</wgt>
<wgt id='2079'>0.21697E+02</wgt>
<wgt id='2080'>0.21696E+02</wgt>
<wgt id='2081'>0.21696E+02</wgt>
<wgt id='2082'>0.21697E+02</wgt>
<wgt id='2083'>0.21697E+02</wgt>
<wgt id='2084'>0.21697E+02</wgt>
<wgt id='2085'>0.21696E+02</wgt>
<wgt id='2086'>0.21694E+02</wgt>
<wgt id='2087'>0.21695E+02</wgt>
<wgt id='2088'>0.21697E+02</wgt>
<wgt id='2089'>0.21695E+02</wgt>
<wgt id='2090'>0.21696E+02</wgt>
<wgt id='2091'>0.21695E+02</wgt>
<wgt id='2092'>0.21697E+02</wgt>
<wgt id='2093'>0.21695E+02</wgt>
<wgt id='2094'>0.21697E+02</wgt>
<wgt id='2095'>0.21697E+02</wgt>
<wgt id='2096'>0.21695E+02</wgt>
<wgt id='2097'>0.21696E+02</wgt>
<wgt id='2098'>0.21694E+02</wgt>
<wgt id='2099'>0.21696E+02</wgt>
<wgt id='2100'>0.21696E+02</wgt>
<wgt id='2101'>0.21171E+02</wgt>
<wgt id='2102'>0.22161E+02</wgt>
<wgt id='2104'>0.19299E+02</wgt>
<wgt id='2105'>0.19733E+02</wgt>
<wgt id='2106'>0.20224E+02</wgt>
<wgt id='2107'>0.20731E+02</wgt>
<wgt id='2108'>0.21472E+02</wgt>
<wgt id='2109'>0.21973E+02</wgt>
<wgt id='2110'>0.22599E+02</wgt>
<wgt id='2111'>0.23083E+02</wgt>
<wgt id='3000'>0.22609E+02</wgt>
<wgt id='3001'>0.22672E+02</wgt>
<wgt id='3002'>0.22537E+02</wgt>
<wgt id='3003'>0.22668E+02</wgt>
<wgt id='3004'>0.22645E+02</wgt>
<wgt id='3005'>0.22676E+02</wgt>
<wgt id='3006'>0.22630E+02</wgt>
<wgt id='3007'>0.22627E+02</wgt>
<wgt id='3008'>0.22567E+02</wgt>
<wgt id='3009'>0.22559E+02</wgt>
<wgt id='3010'>0.22552E+02</wgt>
<wgt id='3011'>0.22649E+02</wgt>
<wgt id='3012'>0.22720E+02</wgt>
<wgt id='3013'>0.22501E+02</wgt>
<wgt id='3014'>0.22659E+02</wgt>
<wgt id='3015'>0.22644E+02</wgt>
<wgt id='3016'>0.22621E+02</wgt>
<wgt id='3017'>0.22664E+02</wgt>
<wgt id='3018'>0.22647E+02</wgt>
<wgt id='3019'>0.22553E+02</wgt>
<wgt id='3020'>0.22561E+02</wgt>
<wgt id='3021'>0.22544E+02</wgt>
<wgt id='3022'>0.22605E+02</wgt>
<wgt id='3023'>0.22566E+02</wgt>
<wgt id='3024'>0.22559E+02</wgt>
<wgt id='3025'>0.22608E+02</wgt>
<wgt id='3026'>0.22649E+02</wgt>
<wgt id='3027'>0.22614E+02</wgt>
<wgt id='3028'>0.22547E+02</wgt>
<wgt id='3029'>0.22599E+02</wgt>
<wgt id='3030'>0.22630E+02</wgt>
<wgt id='3031'>0.22619E+02</wgt>
<wgt id='3032'>0.22627E+02</wgt>
<wgt id='3033'>0.22625E+02</wgt>
<wgt id='3034'>0.22624E+02</wgt>
<wgt id='3035'>0.22622E+02</wgt>
<wgt id='3036'>0.22613E+02</wgt>
<wgt id='3037'>0.22609E+02</wgt>
<wgt id='3038'>0.22610E+02</wgt>
<wgt id='3039'>0.22612E+02</wgt>
<wgt id='3040'>0.22609E+02</wgt>
<wgt id='3041'>0.22608E+02</wgt>
<wgt id='3042'>0.22595E+02</wgt>
<wgt id='3043'>0.22595E+02</wgt>
<wgt id='3044'>0.22618E+02</wgt>
<wgt id='3045'>0.22620E+02</wgt>
<wgt id='3046'>0.22614E+02</wgt>
<wgt id='3047'>0.22605E+02</wgt>
<wgt id='3048'>0.22616E+02</wgt>
<wgt id='3049'>0.22604E+02</wgt>
<wgt id='3050'>0.22607E+02</wgt>
<wgt id='3051'>0.22625E+02</wgt>
<wgt id='3052'>0.22606E+02</wgt>
<wgt id='3053'>0.22607E+02</wgt>
<wgt id='3054'>0.22606E+02</wgt>
<wgt id='3055'>0.22612E+02</wgt>
<wgt id='3056'>0.22613E+02</wgt>
<wgt id='3057'>0.22606E+02</wgt>
<wgt id='3058'>0.22604E+02</wgt>
<wgt id='3059'>0.22611E+02</wgt>
<wgt id='3060'>0.22612E+02</wgt>
<wgt id='3061'>0.22617E+02</wgt>
<wgt id='3062'>0.22612E+02</wgt>
<wgt id='3063'>0.22613E+02</wgt>
<wgt id='3064'>0.22608E+02</wgt>
<wgt id='3065'>0.22611E+02</wgt>
<wgt id='3066'>0.22612E+02</wgt>
<wgt id='3067'>0.22602E+02</wgt>
<wgt id='3068'>0.22609E+02</wgt>
<wgt id='3069'>0.22604E+02</wgt>
<wgt id='3070'>0.22604E+02</wgt>
<wgt id='3071'>0.22609E+02</wgt>
<wgt id='3072'>0.22613E+02</wgt>
<wgt id='3073'>0.22608E+02</wgt>
<wgt id='3074'>0.22612E+02</wgt>
<wgt id='3075'>0.22611E+02</wgt>
<wgt id='3076'>0.22609E+02</wgt>
<wgt id='3077'>0.22608E+02</wgt>
<wgt id='3078'>0.22613E+02</wgt>
<wgt id='3079'>0.22609E+02</wgt>
<wgt id='3080'>0.22607E+02</wgt>
<wgt id='3081'>0.22609E+02</wgt>
<wgt id='3082'>0.22608E+02</wgt>
<wgt id='3083'>0.22608E+02</wgt>
<wgt id='3084'>0.22607E+02</wgt>
<wgt id='3085'>0.22610E+02</wgt>
<wgt id='3086'>0.22609E+02</wgt>
<wgt id='3087'>0.22608E+02</wgt>
<wgt id='3088'>0.22608E+02</wgt>
<wgt id='3089'>0.22609E+02</wgt>
<wgt id='3090'>0.22610E+02</wgt>
<wgt id='3091'>0.22610E+02</wgt>
<wgt id='3092'>0.22609E+02</wgt>
<wgt id='3093'>0.22608E+02</wgt>
<wgt id='3094'>0.22612E+02</wgt>
<wgt id='3095'>0.22610E+02</wgt>
<wgt id='3096'>0.22609E+02</wgt>
<wgt id='3097'>0.22607E+02</wgt>
<wgt id='3098'>0.22610E+02</wgt>
<wgt id='3099'>0.22610E+02</wgt>
<wgt id='3100'>0.22610E+02</wgt>
<wgt id='3101'>0.22075E+02</wgt>
<wgt id='3102'>0.23211E+02</wgt>
<wgt id='5000'>0.21006E+02</wgt>
<wgt id='5001'>0.20944E+02</wgt>
<wgt id='5002'>0.20965E+02</wgt>
<wgt id='5003'>0.20907E+02</wgt>
<wgt id='5004'>0.21013E+02</wgt>
<wgt id='5005'>0.20645E+02</wgt>
<wgt id='5006'>0.21142E+02</wgt>
<wgt id='5007'>0.21033E+02</wgt>
<wgt id='5008'>0.20836E+02</wgt>
<wgt id='5009'>0.21189E+02</wgt>
<wgt id='5010'>0.20899E+02</wgt>
<wgt id='5011'>0.20983E+02</wgt>
<wgt id='5012'>0.20984E+02</wgt>
<wgt id='5013'>0.20654E+02</wgt>
<wgt id='5014'>0.21065E+02</wgt>
<wgt id='5015'>0.21140E+02</wgt>
<wgt id='5016'>0.20589E+02</wgt>
<wgt id='5017'>0.21004E+02</wgt>
<wgt id='5018'>0.21008E+02</wgt>
<wgt id='5019'>0.20964E+02</wgt>
<wgt id='5020'>0.21042E+02</wgt>
<wgt id='5021'>0.21066E+02</wgt>
<wgt id='5022'>0.20967E+02</wgt>
<wgt id='5023'>0.20941E+02</wgt>
<wgt id='5024'>0.21072E+02</wgt>
<wgt id='5025'>0.20992E+02</wgt>
<wgt id='5026'>0.21017E+02</wgt>
<wgt id='5027'>0.21205E+02</wgt>
<wgt id='5028'>0.20670E+02</wgt>
<wgt id='5029'>0.20640E+02</wgt>
<wgt id='5030'>0.21226E+02</wgt>
<wgt id='5031'>0.20789E+02</wgt>
<wgt id='5032'>0.21318E+02</wgt>
<wgt id='5033'>0.20878E+02</wgt>
<wgt id='5034'>0.21114E+02</wgt>
<wgt id='5035'>0.20751E+02</wgt>
<wgt id='5036'>0.21212E+02</wgt>
<wgt id='5037'>0.20913E+02</wgt>
<wgt id='5038'>0.21101E+02</wgt>
<wgt id='5039'>0.21357E+02</wgt>
<wgt id='5040'>0.20826E+02</wgt>
<wgt id='5041'>0.20837E+02</wgt>
<wgt id='5042'>0.21023E+02</wgt>
<wgt id='5043'>0.21170E+02</wgt>
<wgt id='5044'>0.20534E+02</wgt>
<wgt id='5045'>0.21524E+02</wgt>
<wgt id='5046'>0.20825E+02</wgt>
<wgt id='5047'>0.21123E+02</wgt>
<wgt id='5048'>0.21099E+02</wgt>
<wgt id='5049'>0.21021E+02</wgt>
<wgt id='5050'>0.21043E+02</wgt>
<wgt id='5051'>0.21053E+02</wgt>
<wgt id='5052'>0.20998E+02</wgt>
<wgt id='5053'>0.20758E+02</wgt>
<wgt id='5054'>0.21247E+02</wgt>
<wgt id='5055'>0.20874E+02</wgt>
<wgt id='5056'>0.21162E+02</wgt>
<wgt id='5060'>0.20497E+02</wgt>
<wgt id='5070'>0.21467E+02</wgt>
<wgt id='4000'>0.22025E+02</wgt>
<wgt id='4001'>0.22045E+02</wgt>
<wgt id='4002'>0.22084E+02</wgt>
<wgt id='4003'>0.22326E+02</wgt>
<wgt id='4004'>0.21863E+02</wgt>
<wgt id='4005'>0.22091E+02</wgt>
<wgt id='4006'>0.21977E+02</wgt>
<wgt id='4007'>0.22216E+02</wgt>
<wgt id='4008'>0.21939E+02</wgt>
<wgt id='4009'>0.21645E+02</wgt>
<wgt id='4010'>0.22265E+02</wgt>
<wgt id='4011'>0.22342E+02</wgt>
<wgt id='4012'>0.21839E+02</wgt>
<wgt id='4013'>0.21312E+02</wgt>
<wgt id='4014'>0.22430E+02</wgt>
<wgt id='4015'>0.22250E+02</wgt>
<wgt id='4016'>0.21878E+02</wgt>
<wgt id='4017'>0.21791E+02</wgt>
<wgt id='4018'>0.22303E+02</wgt>
<wgt id='4019'>0.22285E+02</wgt>
<wgt id='4020'>0.21734E+02</wgt>
<wgt id='4021'>0.22072E+02</wgt>
<wgt id='4022'>0.21921E+02</wgt>
<wgt id='4023'>0.21931E+02</wgt>
<wgt id='4024'>0.22108E+02</wgt>
<wgt id='4025'>0.21819E+02</wgt>
<wgt id='4026'>0.22210E+02</wgt>
<wgt id='4027'>0.21962E+02</wgt>
<wgt id='4028'>0.22109E+02</wgt>
<wgt id='4029'>0.21880E+02</wgt>
<wgt id='4030'>0.22075E+02</wgt>
<wgt id='4031'>0.22062E+02</wgt>
<wgt id='4032'>0.21977E+02</wgt>
<wgt id='4033'>0.21994E+02</wgt>
<wgt id='4034'>0.22090E+02</wgt>
<wgt id='4035'>0.22278E+02</wgt>
<wgt id='4036'>0.21783E+02</wgt>
<wgt id='4037'>0.22170E+02</wgt>
<wgt id='4038'>0.21776E+02</wgt>
<wgt id='4039'>0.22006E+02</wgt>
<wgt id='4040'>0.22005E+02</wgt>
<wgt id='4041'>0.22172E+02</wgt>
<wgt id='4042'>0.21893E+02</wgt>
<wgt id='4043'>0.22170E+02</wgt>
<wgt id='4044'>0.21893E+02</wgt>
<wgt id='4045'>0.21749E+02</wgt>
<wgt id='4046'>0.21972E+02</wgt>
<wgt id='4047'>0.21823E+02</wgt>
<wgt id='4048'>0.22087E+02</wgt>
<wgt id='4049'>0.21980E+02</wgt>
<wgt id='4050'>0.21732E+02</wgt>
<wgt id='4051'>0.21980E+02</wgt>
<wgt id='4052'>0.21984E+02</wgt>
<wgt id='4053'>0.21423E+02</wgt>
<wgt id='4054'>0.22135E+02</wgt>
<wgt id='4055'>0.21871E+02</wgt>
<wgt id='4056'>0.22201E+02</wgt>
<wgt id='4060'>0.21430E+02</wgt>
<wgt id='4070'>0.22586E+02</wgt>
<wgt id='4080'>0.21906E+02</wgt>
<wgt id='6000'>0.22420E+02</wgt>
<wgt id='6001'>0.22434E+02</wgt>
<wgt id='6002'>0.22405E+02</wgt>
<wgt id='6003'>0.22431E+02</wgt>
<wgt id='6004'>0.22413E+02</wgt>
<wgt id='6005'>0.22475E+02</wgt>
<wgt id='6006'>0.22368E+02</wgt>
<wgt id='6007'>0.22330E+02</wgt>
<wgt id='6008'>0.22521E+02</wgt>
<wgt id='6009'>0.22493E+02</wgt>
<wgt id='6010'>0.22349E+02</wgt>
<wgt id='6011'>0.22467E+02</wgt>
<wgt id='6012'>0.22319E+02</wgt>
<wgt id='6013'>0.22396E+02</wgt>
<wgt id='6014'>0.22463E+02</wgt>
<wgt id='6015'>0.22353E+02</wgt>
<wgt id='6016'>0.22457E+02</wgt>
<wgt id='6017'>0.22295E+02</wgt>
<wgt id='6018'>0.22568E+02</wgt>
<wgt id='6019'>0.22446E+02</wgt>
<wgt id='6020'>0.22397E+02</wgt>
<wgt id='6021'>0.22373E+02</wgt>
<wgt id='6022'>0.22484E+02</wgt>
<wgt id='6023'>0.22267E+02</wgt>
<wgt id='6024'>0.22527E+02</wgt>
<wgt id='6025'>0.22247E+02</wgt>
<wgt id='6026'>0.22546E+02</wgt>
<wgt id='6027'>0.22479E+02</wgt>
<wgt id='6028'>0.22420E+02</wgt>
<wgt id='6029'>0.22524E+02</wgt>
<wgt id='6030'>0.22300E+02</wgt>
<wgt id='6031'>0.22420E+02</wgt>
<wgt id='6032'>0.22412E+02</wgt>
<wgt id='6033'>0.22467E+02</wgt>
<wgt id='6034'>0.22372E+02</wgt>
<wgt id='6035'>0.22414E+02</wgt>
<wgt id='6036'>0.22471E+02</wgt>
<wgt id='6037'>0.22458E+02</wgt>
<wgt id='6038'>0.22417E+02</wgt>
<wgt id='6039'>0.22395E+02</wgt>
<wgt id='6040'>0.22448E+02</wgt>
<wgt id='6041'>0.22372E+02</wgt>
<wgt id='6042'>0.22479E+02</wgt>
<wgt id='6043'>0.22698E+02</wgt>
<wgt id='6044'>0.22291E+02</wgt>
<wgt id='6045'>0.22403E+02</wgt>
<wgt id='6046'>0.22464E+02</wgt>
<wgt id='6047'>0.22455E+02</wgt>
<wgt id='6048'>0.22224E+02</wgt>
<wgt id='6049'>0.22439E+02</wgt>
<wgt id='6050'>0.22400E+02</wgt>
<wgt id='7000'>0.21148E+02</wgt>
<wgt id='7001'>0.21146E+02</wgt>
<wgt id='7002'>0.21151E+02</wgt>
<wgt id='7003'>0.21212E+02</wgt>
<wgt id='7004'>0.21084E+02</wgt>
<wgt id='7005'>0.21188E+02</wgt>
<wgt id='7006'>0.21132E+02</wgt>
<wgt id='7007'>0.21066E+02</wgt>
<wgt id='7008'>0.21229E+02</wgt>
<wgt id='7009'>0.21183E+02</wgt>
<wgt id='7010'>0.21113E+02</wgt>
<wgt id='7011'>0.20953E+02</wgt>
<wgt id='7012'>0.21232E+02</wgt>
<wgt id='7013'>0.21148E+02</wgt>
<wgt id='7014'>0.21147E+02</wgt>
<wgt id='7015'>0.21089E+02</wgt>
<wgt id='7016'>0.21210E+02</wgt>
<wgt id='7017'>0.21077E+02</wgt>
<wgt id='7018'>0.21185E+02</wgt>
<wgt id='7019'>0.21123E+02</wgt>
<wgt id='7020'>0.21182E+02</wgt>
<wgt id='7021'>0.21141E+02</wgt>
<wgt id='7022'>0.21151E+02</wgt>
<wgt id='7023'>0.21344E+02</wgt>
<wgt id='7024'>0.20953E+02</wgt>
<wgt id='7025'>0.21227E+02</wgt>
<wgt id='7026'>0.20953E+02</wgt>
<wgt id='7027'>0.21231E+02</wgt>
<wgt id='7028'>0.21113E+02</wgt>
<wgt id='7029'>0.21077E+02</wgt>
<wgt id='7030'>0.21328E+02</wgt>
<wgt id='7031'>0.21137E+02</wgt>
<wgt id='7032'>0.21174E+02</wgt>
<wgt id='7033'>0.21128E+02</wgt>
<wgt id='7034'>0.21197E+02</wgt>
<wgt id='7035'>0.21178E+02</wgt>
<wgt id='7036'>0.21144E+02</wgt>
<wgt id='7037'>0.21155E+02</wgt>
<wgt id='7038'>0.21153E+02</wgt>
<wgt id='7039'>0.21120E+02</wgt>
<wgt id='7040'>0.21167E+02</wgt>
<wgt id='7041'>0.21110E+02</wgt>
<wgt id='7042'>0.21177E+02</wgt>
<wgt id='7043'>0.21165E+02</wgt>
<wgt id='7044'>0.21047E+02</wgt>
<wgt id='7045'>0.20966E+02</wgt>
<wgt id='7046'>0.21221E+02</wgt>
<wgt id='7047'>0.21180E+02</wgt>
<wgt id='7048'>0.21127E+02</wgt>
<wgt id='7049'>0.21107E+02</wgt>
<wgt id='7050'>0.21135E+02</wgt>
<wgt id='7060'>0.31952E+02</wgt>
<wgt id='8000'>0.21388E+02</wgt>
<wgt id='8001'>0.21383E+02</wgt>
<wgt id='8002'>0.21394E+02</wgt>
<wgt id='8003'>0.21390E+02</wgt>
<wgt id='8004'>0.21388E+02</wgt>
<wgt id='8005'>0.21339E+02</wgt>
<wgt id='8006'>0.21379E+02</wgt>
<wgt id='8007'>0.21367E+02</wgt>
<wgt id='8008'>0.21427E+02</wgt>
<wgt id='8009'>0.21467E+02</wgt>
<wgt id='8010'>0.21387E+02</wgt>
<wgt id='8011'>0.21379E+02</wgt>
<wgt id='8012'>0.21359E+02</wgt>
<wgt id='8013'>0.21381E+02</wgt>
<wgt id='8014'>0.21383E+02</wgt>
<wgt id='8015'>0.21372E+02</wgt>
<wgt id='8016'>0.21396E+02</wgt>
<wgt id='8017'>0.21392E+02</wgt>
<wgt id='8018'>0.21393E+02</wgt>
<wgt id='8019'>0.21421E+02</wgt>
<wgt id='8020'>0.21327E+02</wgt>
<wgt id='8021'>0.21388E+02</wgt>
<wgt id='8022'>0.21277E+02</wgt>
<wgt id='8023'>0.21406E+02</wgt>
<wgt id='8024'>0.21419E+02</wgt>
<wgt id='8025'>0.21450E+02</wgt>
<wgt id='8026'>0.21429E+02</wgt>
<wgt id='8027'>0.21358E+02</wgt>
<wgt id='8028'>0.21409E+02</wgt>
<wgt id='8029'>0.21246E+02</wgt>
<wgt id='8500'>0.22224E+02</wgt>
<wgt id='8501'>0.22156E+02</wgt>
<wgt id='8502'>0.22386E+02</wgt>
<wgt id='8503'>0.22341E+02</wgt>
<wgt id='8504'>0.22175E+02</wgt>
<wgt id='8505'>0.22161E+02</wgt>
<wgt id='8506'>0.22194E+02</wgt>
<wgt id='8507'>0.22306E+02</wgt>
<wgt id='8508'>0.22404E+02</wgt>
<wgt id='8509'>0.22162E+02</wgt>
<wgt id='8510'>0.22525E+02</wgt>
<wgt id='8511'>0.22239E+02</wgt>
<wgt id='8512'>0.22023E+02</wgt>
<wgt id='8513'>0.22244E+02</wgt>
<wgt id='8514'>0.22059E+02</wgt>
<wgt id='8515'>0.22269E+02</wgt>
<wgt id='8516'>0.22265E+02</wgt>
<wgt id='8517'>0.22144E+02</wgt>
<wgt id='8518'>0.22162E+02</wgt>
<wgt id='8519'>0.22172E+02</wgt>
<wgt id='8520'>0.22232E+02</wgt>
<wgt id='8521'>0.22117E+02</wgt>
<wgt id='8522'>0.22242E+02</wgt>
<wgt id='8523'>0.22174E+02</wgt>
<wgt id='8524'>0.22208E+02</wgt>
<wgt id='8525'>0.22197E+02</wgt>
<wgt id='8526'>0.22196E+02</wgt>
<wgt id='8527'>0.22232E+02</wgt>
<wgt id='8528'>0.22165E+02</wgt>
<wgt id='8529'>0.22204E+02</wgt>
<wgt id='8530'>0.22218E+02</wgt>
<wgt id='8531'>0.22217E+02</wgt>
<wgt id='8532'>0.22225E+02</wgt>
<wgt id='8533'>0.22180E+02</wgt>
<wgt id='8534'>0.22231E+02</wgt>
<wgt id='8535'>0.22275E+02</wgt>
<wgt id='8536'>0.22208E+02</wgt>
<wgt id='8537'>0.22232E+02</wgt>
<wgt id='8538'>0.22207E+02</wgt>
<wgt id='8539'>0.22229E+02</wgt>
<wgt id='8540'>0.22227E+02</wgt>
<wgt id='8541'>0.22236E+02</wgt>
<wgt id='8542'>0.22241E+02</wgt>
<wgt id='8543'>0.22204E+02</wgt>
<wgt id='8544'>0.22245E+02</wgt>
<wgt id='8545'>0.22241E+02</wgt>
<wgt id='8546'>0.22248E+02</wgt>
<wgt id='8547'>0.22205E+02</wgt>
<wgt id='8548'>0.22204E+02</wgt>
<wgt id='8549'>0.22225E+02</wgt>
<wgt id='8550'>0.22225E+02</wgt>
<wgt id='8551'>0.22203E+02</wgt>
<wgt id='8552'>0.22227E+02</wgt>
<wgt id='8553'>0.22212E+02</wgt>
<wgt id='8554'>0.22214E+02</wgt>
<wgt id='8555'>0.22226E+02</wgt>
<wgt id='8556'>0.22222E+02</wgt>
<wgt id='8557'>0.22220E+02</wgt>
<wgt id='8558'>0.22250E+02</wgt>
<wgt id='8559'>0.22213E+02</wgt>
<wgt id='8560'>0.22199E+02</wgt>
<wgt id='8561'>0.22222E+02</wgt>
<wgt id='8562'>0.22207E+02</wgt>
<wgt id='8563'>0.22225E+02</wgt>
<wgt id='8564'>0.22219E+02</wgt>
<wgt id='8565'>0.22224E+02</wgt>
<wgt id='8566'>0.22220E+02</wgt>
<wgt id='8567'>0.22221E+02</wgt>
<wgt id='8568'>0.22233E+02</wgt>
<wgt id='8569'>0.22230E+02</wgt>
<wgt id='8570'>0.22223E+02</wgt>
<wgt id='8571'>0.22214E+02</wgt>
<wgt id='8572'>0.22217E+02</wgt>
<wgt id='8573'>0.22215E+02</wgt>
<wgt id='8574'>0.22228E+02</wgt>
<wgt id='8575'>0.22221E+02</wgt>
<wgt id='8576'>0.22222E+02</wgt>
<wgt id='8577'>0.22223E+02</wgt>
<wgt id='8578'>0.22225E+02</wgt>
<wgt id='8579'>0.22238E+02</wgt>
<wgt id='8580'>0.22225E+02</wgt>
<wgt id='8581'>0.22229E+02</wgt>
<wgt id='8582'>0.22209E+02</wgt>
<wgt id='8583'>0.22233E+02</wgt>
<wgt id='8584'>0.22230E+02</wgt>
<wgt id='8585'>0.22229E+02</wgt>
<wgt id='8586'>0.22235E+02</wgt>
<wgt id='8587'>0.22221E+02</wgt>
<wgt id='8588'>0.22219E+02</wgt>
<wgt id='8589'>0.22225E+02</wgt>
<wgt id='8590'>0.22222E+02</wgt>
<wgt id='8591'>0.22221E+02</wgt>
<wgt id='8592'>0.22224E+02</wgt>
<wgt id='8593'>0.22216E+02</wgt>
<wgt id='8594'>0.22227E+02</wgt>
<wgt id='8595'>0.22227E+02</wgt>
<wgt id='8596'>0.22220E+02</wgt>
<wgt id='8597'>0.22227E+02</wgt>
<wgt id='8598'>0.22229E+02</wgt>
<wgt id='8599'>0.22227E+02</wgt>
<wgt id='8600'>0.22224E+02</wgt>
<wgt id='8601'>0.21816E+02</wgt>
<wgt id='8602'>0.22587E+02</wgt>
<wgt id='9000'>0.21171E+02</wgt>
<wgt id='9001'>0.21193E+02</wgt>
<wgt id='9002'>0.21260E+02</wgt>
<wgt id='9003'>0.21022E+02</wgt>
<wgt id='9004'>0.21143E+02</wgt>
<wgt id='9005'>0.21240E+02</wgt>
<wgt id='9006'>0.21138E+02</wgt>
<wgt id='9007'>0.21198E+02</wgt>
<wgt id='9008'>0.21211E+02</wgt>
<wgt id='9009'>0.21154E+02</wgt>
<wgt id='9010'>0.21115E+02</wgt>
<wgt id='9011'>0.21375E+02</wgt>
<wgt id='9012'>0.20993E+02</wgt>
<wgt id='9013'>0.20917E+02</wgt>
<wgt id='9014'>0.21007E+02</wgt>
<wgt id='9015'>0.21171E+02</wgt>
<wgt id='9016'>0.21326E+02</wgt>
<wgt id='9017'>0.21140E+02</wgt>
<wgt id='9018'>0.21133E+02</wgt>
<wgt id='9019'>0.21138E+02</wgt>
<wgt id='9020'>0.21266E+02</wgt>
<wgt id='9021'>0.21144E+02</wgt>
<wgt id='9022'>0.21202E+02</wgt>
<wgt id='9023'>0.21123E+02</wgt>
<wgt id='9024'>0.21145E+02</wgt>
<wgt id='9025'>0.21195E+02</wgt>
<wgt id='9026'>0.21172E+02</wgt>
<wgt id='9027'>0.21132E+02</wgt>
<wgt id='9028'>0.21189E+02</wgt>
<wgt id='9029'>0.21197E+02</wgt>
<wgt id='9030'>0.21175E+02</wgt>
<wgt id='9031'>0.21159E+02</wgt>
<wgt id='9032'>0.21191E+02</wgt>
<wgt id='9033'>0.21198E+02</wgt>
<wgt id='9034'>0.21162E+02</wgt>
<wgt id='9035'>0.21205E+02</wgt>
<wgt id='9036'>0.21171E+02</wgt>
<wgt id='9037'>0.21190E+02</wgt>
<wgt id='9038'>0.21174E+02</wgt>
<wgt id='9039'>0.21175E+02</wgt>
<wgt id='9040'>0.21148E+02</wgt>
<wgt id='9041'>0.21163E+02</wgt>
<wgt id='9042'>0.21168E+02</wgt>
<wgt id='9043'>0.21152E+02</wgt>
<wgt id='9044'>0.21178E+02</wgt>
<wgt id='9045'>0.21169E+02</wgt>
<wgt id='9046'>0.21142E+02</wgt>
<wgt id='9047'>0.21163E+02</wgt>
<wgt id='9048'>0.21177E+02</wgt>
<wgt id='9049'>0.21159E+02</wgt>
<wgt id='9050'>0.21175E+02</wgt>
<wgt id='9051'>0.21180E+02</wgt>
<wgt id='9052'>0.21177E+02</wgt>
<wgt id='9053'>0.21173E+02</wgt>
<wgt id='9054'>0.21160E+02</wgt>
<wgt id='9055'>0.21165E+02</wgt>
<wgt id='9056'>0.21191E+02</wgt>
<wgt id='9057'>0.21169E+02</wgt>
<wgt id='9058'>0.21153E+02</wgt>
<wgt id='9059'>0.21161E+02</wgt>
<wgt id='9060'>0.21163E+02</wgt>
<wgt id='9061'>0.21173E+02</wgt>
<wgt id='9062'>0.21174E+02</wgt>
<wgt id='9063'>0.21181E+02</wgt>
<wgt id='9064'>0.21165E+02</wgt>
<wgt id='9065'>0.21170E+02</wgt>
<wgt id='9066'>0.21173E+02</wgt>
<wgt id='9067'>0.21178E+02</wgt>
<wgt id='9068'>0.21178E+02</wgt>
<wgt id='9069'>0.21183E+02</wgt>
<wgt id='9070'>0.21168E+02</wgt>
<wgt id='9071'>0.21183E+02</wgt>
<wgt id='9072'>0.21184E+02</wgt>
<wgt id='9073'>0.21165E+02</wgt>
<wgt id='9074'>0.21174E+02</wgt>
<wgt id='9075'>0.21169E+02</wgt>
<wgt id='9076'>0.21168E+02</wgt>
<wgt id='9077'>0.21174E+02</wgt>
<wgt id='9078'>0.21172E+02</wgt>
<wgt id='9079'>0.21167E+02</wgt>
<wgt id='9080'>0.21186E+02</wgt>
<wgt id='9081'>0.21168E+02</wgt>
<wgt id='9082'>0.21176E+02</wgt>
<wgt id='9083'>0.21163E+02</wgt>
<wgt id='9084'>0.21164E+02</wgt>
<wgt id='9085'>0.21164E+02</wgt>
<wgt id='9086'>0.21173E+02</wgt>
<wgt id='9087'>0.21157E+02</wgt>
<wgt id='9088'>0.21166E+02</wgt>
<wgt id='9089'>0.21166E+02</wgt>
<wgt id='9090'>0.21174E+02</wgt>
<wgt id='9091'>0.21169E+02</wgt>
<wgt id='9092'>0.21170E+02</wgt>
<wgt id='9093'>0.21167E+02</wgt>
<wgt id='9094'>0.21170E+02</wgt>
<wgt id='9095'>0.21173E+02</wgt>
<wgt id='9096'>0.21166E+02</wgt>
<wgt id='9097'>0.21172E+02</wgt>
<wgt id='9098'>0.21170E+02</wgt>
<wgt id='9099'>0.21166E+02</wgt>
<wgt id='9100'>0.21170E+02</wgt>
<wgt id='9101'>0.20857E+02</wgt>
<wgt id='9102'>0.21446E+02</wgt>
<wgt id='10000'>0.22225E+02</wgt>
<wgt id='10001'>0.22315E+02</wgt>
<wgt id='10002'>0.22175E+02</wgt>
<wgt id='10003'>0.22221E+02</wgt>
<wgt id='10004'>0.22203E+02</wgt>
<wgt id='10005'>0.22716E+02</wgt>
<wgt id='10006'>0.22200E+02</wgt>
<wgt id='10007'>0.22217E+02</wgt>
<wgt id='10008'>0.22245E+02</wgt>
<wgt id='10009'>0.22176E+02</wgt>
<wgt id='10010'>0.22245E+02</wgt>
<wgt id='10011'>0.22195E+02</wgt>
<wgt id='10012'>0.22192E+02</wgt>
<wgt id='10013'>0.22223E+02</wgt>
<wgt id='10014'>0.22220E+02</wgt>
<wgt id='10015'>0.22247E+02</wgt>
<wgt id='10016'>0.22212E+02</wgt>
<wgt id='10017'>0.22115E+02</wgt>
<wgt id='10018'>0.22248E+02</wgt>
<wgt id='10019'>0.22198E+02</wgt>
<wgt id='10020'>0.22214E+02</wgt>
<wgt id='10021'>0.22220E+02</wgt>
<wgt id='10022'>0.22210E+02</wgt>
<wgt id='10023'>0.22227E+02</wgt>
<wgt id='10024'>0.22214E+02</wgt>
<wgt id='10025'>0.22212E+02</wgt>
<wgt id='10026'>0.22250E+02</wgt>
<wgt id='10027'>0.22246E+02</wgt>
<wgt id='10028'>0.22339E+02</wgt>
<wgt id='10029'>0.22254E+02</wgt>
<wgt id='10030'>0.22219E+02</wgt>
<wgt id='10031'>0.21816E+02</wgt>
<wgt id='10032'>0.22587E+02</wgt>
<wgt id='11000'>0.21171E+02</wgt>
<wgt id='11001'>0.21096E+02</wgt>
<wgt id='11002'>0.21242E+02</wgt>
<wgt id='11003'>0.21148E+02</wgt>
<wgt id='11004'>0.21245E+02</wgt>
<wgt id='11005'>0.20937E+02</wgt>
<wgt id='11006'>0.21174E+02</wgt>
<wgt id='11007'>0.21125E+02</wgt>
<wgt id='11008'>0.21124E+02</wgt>
<wgt id='11009'>0.21088E+02</wgt>
<wgt id='11010'>0.21255E+02</wgt>
<wgt id='11011'>0.21080E+02</wgt>
<wgt id='11012'>0.21188E+02</wgt>
<wgt id='11013'>0.21237E+02</wgt>
<wgt id='11014'>0.21121E+02</wgt>
<wgt id='11015'>0.21151E+02</wgt>
<wgt id='11016'>0.21150E+02</wgt>
<wgt id='11017'>0.21317E+02</wgt>
<wgt id='11018'>0.21166E+02</wgt>
<wgt id='11019'>0.21163E+02</wgt>
<wgt id='11020'>0.21209E+02</wgt>
<wgt id='11021'>0.21221E+02</wgt>
<wgt id='11022'>0.21521E+02</wgt>
<wgt id='11023'>0.21171E+02</wgt>
<wgt id='11024'>0.21172E+02</wgt>
<wgt id='11025'>0.21139E+02</wgt>
<wgt id='11026'>0.21175E+02</wgt>
<wgt id='11027'>0.21165E+02</wgt>
<wgt id='11028'>0.21177E+02</wgt>
<wgt id='11029'>0.21178E+02</wgt>
<wgt id='11030'>0.21171E+02</wgt>
<wgt id='11031'>0.20857E+02</wgt>
<wgt id='11032'>0.21446E+02</wgt>
<wgt id='12000'>0.23335E+02</wgt>
<wgt id='12001'>0.23305E+02</wgt>
<wgt id='12002'>0.23365E+02</wgt>
<wgt id='12003'>0.23390E+02</wgt>
<wgt id='12004'>0.23280E+02</wgt>
<wgt id='12005'>0.23371E+02</wgt>
<wgt id='12006'>0.23299E+02</wgt>
<wgt id='12007'>0.23398E+02</wgt>
<wgt id='12008'>0.23274E+02</wgt>
<wgt id='12009'>0.23365E+02</wgt>
<wgt id='12010'>0.23306E+02</wgt>
<wgt id='12011'>0.23275E+02</wgt>
<wgt id='12012'>0.23399E+02</wgt>
<wgt id='12013'>0.23250E+02</wgt>
<wgt id='12014'>0.23421E+02</wgt>
<wgt id='12015'>0.23344E+02</wgt>
<wgt id='12016'>0.23306E+02</wgt>
<wgt id='12017'>0.23412E+02</wgt>
<wgt id='12018'>0.23252E+02</wgt>
<wgt id='12019'>0.23271E+02</wgt>
<wgt id='12020'>0.23396E+02</wgt>
<wgt id='12021'>0.23415E+02</wgt>
<wgt id='12022'>0.23231E+02</wgt>
<wgt id='12023'>0.23225E+02</wgt>
<wgt id='12024'>0.23337E+02</wgt>
<wgt id='12025'>0.23373E+02</wgt>
<wgt id='12026'>0.23329E+02</wgt>
<wgt id='12027'>0.23364E+02</wgt>
<wgt id='12028'>0.23327E+02</wgt>
<wgt id='12050'>0.23335E+02</wgt>
<wgt id='12051'>0.23327E+02</wgt>
<wgt id='12052'>0.23330E+02</wgt>
<wgt id='12053'>0.23322E+02</wgt>
<wgt id='12054'>0.23332E+02</wgt>
<wgt id='12055'>0.23406E+02</wgt>
<wgt id='12056'>0.23221E+02</wgt>
<wgt id='12057'>0.23257E+02</wgt>
<wgt id='12058'>0.23411E+02</wgt>
<wgt id='12059'>0.23301E+02</wgt>
<wgt id='12060'>0.23377E+02</wgt>
<wgt id='12061'>0.23320E+02</wgt>
<wgt id='12062'>0.23369E+02</wgt>
<wgt id='12063'>0.23129E+02</wgt>
<wgt id='13000'>0.21434E+02</wgt>
<wgt id='13001'>0.21418E+02</wgt>
<wgt id='13002'>0.21448E+02</wgt>
<wgt id='13003'>0.21461E+02</wgt>
<wgt id='13004'>0.21405E+02</wgt>
<wgt id='13005'>0.21482E+02</wgt>
<wgt id='13006'>0.21384E+02</wgt>
<wgt id='13007'>0.21523E+02</wgt>
<wgt id='13008'>0.21345E+02</wgt>
<wgt id='13009'>0.21424E+02</wgt>
<wgt id='13010'>0.21443E+02</wgt>
<wgt id='13011'>0.21489E+02</wgt>
<wgt id='13012'>0.21378E+02</wgt>
<wgt id='13013'>0.21375E+02</wgt>
<wgt id='13014'>0.21491E+02</wgt>
<wgt id='13015'>0.21408E+02</wgt>
<wgt id='13016'>0.21446E+02</wgt>
<wgt id='13017'>0.21421E+02</wgt>
<wgt id='13018'>0.21442E+02</wgt>
<wgt id='13019'>0.21399E+02</wgt>
<wgt id='13020'>0.21465E+02</wgt>
<wgt id='13021'>0.21295E+02</wgt>
<wgt id='13022'>0.21543E+02</wgt>
<wgt id='13023'>0.21421E+02</wgt>
<wgt id='13024'>0.21443E+02</wgt>
<wgt id='13025'>0.21348E+02</wgt>
<wgt id='13026'>0.21469E+02</wgt>
<wgt id='13027'>0.21425E+02</wgt>
<wgt id='13028'>0.21464E+02</wgt>
<wgt id='13050'>0.21435E+02</wgt>
<wgt id='13051'>0.21444E+02</wgt>
<wgt id='13052'>0.21371E+02</wgt>
<wgt id='13053'>0.21435E+02</wgt>
<wgt id='13054'>0.21423E+02</wgt>
<wgt id='13055'>0.21357E+02</wgt>
<wgt id='13056'>0.21437E+02</wgt>
<wgt id='13057'>0.21367E+02</wgt>
<wgt id='13058'>0.21539E+02</wgt>
<wgt id='13059'>0.21383E+02</wgt>
<wgt id='13060'>0.21405E+02</wgt>
<wgt id='13061'>0.21378E+02</wgt>
<wgt id='13062'>0.21590E+02</wgt>
<wgt id='13063'>0.21340E+02</wgt>
<wgt id='14000'>0.21955E+02</wgt>
<wgt id='14001'>0.21951E+02</wgt>
<wgt id='14002'>0.21948E+02</wgt>
<wgt id='14003'>0.21944E+02</wgt>
<wgt id='14004'>0.21941E+02</wgt>
<wgt id='14005'>0.21938E+02</wgt>
<wgt id='14006'>0.21934E+02</wgt>
<wgt id='14007'>0.21931E+02</wgt>
<wgt id='14008'>0.21927E+02</wgt>
<wgt id='14009'>0.21924E+02</wgt>
<wgt id='14010'>0.21920E+02</wgt>
<wgt id='14011'>0.21917E+02</wgt>
<wgt id='14012'>0.21913E+02</wgt>
<wgt id='14013'>0.21910E+02</wgt>
<wgt id='14014'>0.21907E+02</wgt>
<wgt id='14015'>0.21903E+02</wgt>
<wgt id='14016'>0.21900E+02</wgt>
<wgt id='14017'>0.21896E+02</wgt>
<wgt id='14018'>0.21893E+02</wgt>
<wgt id='14019'>0.21889E+02</wgt>
<wgt id='14020'>0.21886E+02</wgt>
<wgt id='14021'>0.21882E+02</wgt>
<wgt id='14022'>0.21879E+02</wgt>
<wgt id='14023'>0.21875E+02</wgt>
<wgt id='14024'>0.21872E+02</wgt>
<wgt id='14025'>0.21869E+02</wgt>
<wgt id='14026'>0.21865E+02</wgt>
<wgt id='14027'>0.21862E+02</wgt>
<wgt id='14028'>0.21858E+02</wgt>
<wgt id='14029'>0.21855E+02</wgt>
<wgt id='14030'>0.21851E+02</wgt>
<wgt id='15000'>0.20906E+02</wgt>
<wgt id='15001'>0.20923E+02</wgt>
<wgt id='15002'>0.20993E+02</wgt>
<wgt id='15003'>0.20761E+02</wgt>
<wgt id='15004'>0.20878E+02</wgt>
<wgt id='15005'>0.20975E+02</wgt>
<wgt id='15006'>0.20878E+02</wgt>
<wgt id='15007'>0.20937E+02</wgt>
<wgt id='15008'>0.20947E+02</wgt>
<wgt id='15009'>0.20891E+02</wgt>
<wgt id='15010'>0.20851E+02</wgt>
<wgt id='15011'>0.21114E+02</wgt>
<wgt id='15012'>0.20734E+02</wgt>
<wgt id='15013'>0.20658E+02</wgt>
<wgt id='15014'>0.20744E+02</wgt>
<wgt id='15015'>0.20898E+02</wgt>
<wgt id='15016'>0.21065E+02</wgt>
<wgt id='15017'>0.20873E+02</wgt>
<wgt id='15018'>0.20869E+02</wgt>
<wgt id='15019'>0.20879E+02</wgt>
<wgt id='15020'>0.21006E+02</wgt>
<wgt id='15021'>0.20878E+02</wgt>
<wgt id='15022'>0.20938E+02</wgt>
<wgt id='15023'>0.20860E+02</wgt>
<wgt id='15024'>0.20878E+02</wgt>
<wgt id='15025'>0.20927E+02</wgt>
<wgt id='15026'>0.20904E+02</wgt>
<wgt id='15027'>0.20873E+02</wgt>
<wgt id='15028'>0.20927E+02</wgt>
<wgt id='15029'>0.20931E+02</wgt>
<wgt id='15030'>0.20909E+02</wgt>
<wgt id='15031'>0.20899E+02</wgt>
<wgt id='15032'>0.20924E+02</wgt>
<wgt id='15033'>0.20932E+02</wgt>
<wgt id='15034'>0.20898E+02</wgt>
<wgt id='15035'>0.20940E+02</wgt>
<wgt id='15036'>0.20907E+02</wgt>
<wgt id='15037'>0.20926E+02</wgt>
<wgt id='15038'>0.20910E+02</wgt>
<wgt id='15039'>0.20909E+02</wgt>
<wgt id='15040'>0.20884E+02</wgt>
<wgt id='15041'>0.20898E+02</wgt>
<wgt id='15042'>0.20903E+02</wgt>
<wgt id='15043'>0.20891E+02</wgt>
<wgt id='15044'>0.20913E+02</wgt>
<wgt id='15045'>0.20905E+02</wgt>
<wgt id='15046'>0.20879E+02</wgt>
<wgt id='15047'>0.20898E+02</wgt>
<wgt id='15048'>0.20914E+02</wgt>
<wgt id='15049'>0.20894E+02</wgt>
<wgt id='15050'>0.20911E+02</wgt>
<wgt id='15051'>0.20915E+02</wgt>
<wgt id='15052'>0.20912E+02</wgt>
<wgt id='15053'>0.20909E+02</wgt>
<wgt id='15054'>0.20896E+02</wgt>
<wgt id='15055'>0.20902E+02</wgt>
<wgt id='15056'>0.20925E+02</wgt>
<wgt id='15057'>0.20905E+02</wgt>
<wgt id='15058'>0.20891E+02</wgt>
<wgt id='15059'>0.20897E+02</wgt>
<wgt id='15060'>0.20899E+02</wgt>
<wgt id='15061'>0.20909E+02</wgt>
<wgt id='15062'>0.20909E+02</wgt>
<wgt id='15063'>0.20916E+02</wgt>
<wgt id='15064'>0.20902E+02</wgt>
<wgt id='15065'>0.20906E+02</wgt>
<wgt id='15066'>0.20909E+02</wgt>
<wgt id='15067'>0.20913E+02</wgt>
<wgt id='15068'>0.20913E+02</wgt>
<wgt id='15069'>0.20918E+02</wgt>
<wgt id='15070'>0.20904E+02</wgt>
<wgt id='15071'>0.20919E+02</wgt>
<wgt id='15072'>0.20919E+02</wgt>
<wgt id='15073'>0.20900E+02</wgt>
<wgt id='15074'>0.20910E+02</wgt>
<wgt id='15075'>0.20905E+02</wgt>
<wgt id='15076'>0.20905E+02</wgt>
<wgt id='15077'>0.20910E+02</wgt>
<wgt id='15078'>0.20908E+02</wgt>
<wgt id='15079'>0.20903E+02</wgt>
<wgt id='15080'>0.20921E+02</wgt>
<wgt id='15081'>0.20904E+02</wgt>
<wgt id='15082'>0.20912E+02</wgt>
<wgt id='15083'>0.20899E+02</wgt>
<wgt id='15084'>0.20900E+02</wgt>
<wgt id='15085'>0.20901E+02</wgt>
<wgt id='15086'>0.20910E+02</wgt>
<wgt id='15087'>0.20893E+02</wgt>
<wgt id='15088'>0.20902E+02</wgt>
<wgt id='15089'>0.20901E+02</wgt>
<wgt id='15090'>0.20910E+02</wgt>
<wgt id='15091'>0.20904E+02</wgt>
<wgt id='15092'>0.20906E+02</wgt>
<wgt id='15093'>0.20903E+02</wgt>
<wgt id='15094'>0.20905E+02</wgt>
<wgt id='15095'>0.20909E+02</wgt>
<wgt id='15096'>0.20902E+02</wgt>
<wgt id='15097'>0.20908E+02</wgt>
<wgt id='15098'>0.20906E+02</wgt>
<wgt id='15099'>0.20902E+02</wgt>
<wgt id='15100'>0.20906E+02</wgt>
<wgt id='15101'>0.20906E+02</wgt>
<wgt id='15102'>0.20905E+02</wgt>
<wgt id='15103'>0.20907E+02</wgt>
<wgt id='15104'>0.20907E+02</wgt>
<wgt id='15105'>0.20907E+02</wgt>
<wgt id='15106'>0.20907E+02</wgt>
<wgt id='15107'>0.20905E+02</wgt>
<wgt id='1500'>0.22208E+02</wgt>
<wgt id='1501'>0.20520E+02</wgt>
<wgt id='1502'>0.22203E+02</wgt>
<wgt id='1503'>0.22216E+02</wgt>
<wgt id='1504'>0.21914E+02</wgt>
<wgt id='1505'>0.19881E+02</wgt>
<wgt id='1506'>0.22488E+02</wgt>
<wgt id='1507'>0.22436E+02</wgt>
<wgt id='1508'>0.22383E+02</wgt>
<wgt id='1509'>0.22337E+02</wgt>
<wgt id='1510'>0.21554E+02</wgt>
<wgt id='1511'>0.21744E+02</wgt>
<wgt id='1512'>0.22594E+02</wgt>
<wgt id='1513'>0.22620E+02</wgt>
<wgt id='1514'>0.21780E+02</wgt>
<wgt id='1515'>0.22598E+02</wgt>
<wgt id='1516'>0.22469E+02</wgt>
<wgt id='1517'>0.21989E+02</wgt>
<wgt id='1518'>0.22044E+02</wgt>
<wgt id='1519'>0.22499E+02</wgt>
<wgt id='1520'>0.22621E+02</wgt>
<wgt id='1521'>0.22370E+02</wgt>
<wgt id='1522'>0.22028E+02</wgt>
<wgt id='1523'>0.23875E+02</wgt>
<wgt id='1524'>0.22108E+02</wgt>
<wgt id='1525'>0.22374E+02</wgt>
<wgt id='1526'>0.21958E+02</wgt>
<wgt id='1527'>0.21999E+02</wgt>
<wgt id='1528'>0.21980E+02</wgt>
<wgt id='1529'>0.22145E+02</wgt>
<wgt id='1530'>0.22714E+02</wgt>
<wgt id='1531'>0.22137E+02</wgt>
<wgt id='1532'>0.21669E+02</wgt>
<wgt id='1533'>0.22236E+02</wgt>
<wgt id='1534'>0.22318E+02</wgt>
<wgt id='1535'>0.22831E+02</wgt>
<wgt id='1536'>0.22527E+02</wgt>
<wgt id='1537'>0.22589E+02</wgt>
<wgt id='1538'>0.22481E+02</wgt>
<wgt id='1539'>0.21585E+02</wgt>
<wgt id='1540'>0.22437E+02</wgt>
<wgt id='1541'>0.22220E+02</wgt>
<wgt id='1542'>0.22302E+02</wgt>
<wgt id='1543'>0.22366E+02</wgt>
<wgt id='1544'>0.22083E+02</wgt>
<wgt id='1545'>0.22215E+02</wgt>
<wgt id='1546'>0.22509E+02</wgt>
<wgt id='1547'>0.21885E+02</wgt>
<wgt id='1548'>0.21925E+02</wgt>
<wgt id='1549'>0.22076E+02</wgt>
<wgt id='1550'>0.22159E+02</wgt>
<wgt id='1551'>0.22150E+02</wgt>
<wgt id='1552'>0.22003E+02</wgt>
<wgt id='1553'>0.22505E+02</wgt>
<wgt id='1554'>0.22321E+02</wgt>
<wgt id='1555'>0.22042E+02</wgt>
<wgt id='1556'>0.21748E+02</wgt>
<wgt id='1557'>0.22732E+02</wgt>
<wgt id='1558'>0.21943E+02</wgt>
<wgt id='1559'>0.22547E+02</wgt>
<wgt id='1560'>0.22115E+02</wgt>
<wgt id='1561'>0.22238E+02</wgt>
<wgt id='1562'>0.22253E+02</wgt>
<wgt id='1563'>0.22434E+02</wgt>
<wgt id='1564'>0.21817E+02</wgt>
<wgt id='1565'>0.22374E+02</wgt>
<wgt id='1566'>0.22339E+02</wgt>
<wgt id='1567'>0.23594E+02</wgt>
<wgt id='1568'>0.21878E+02</wgt>
<wgt id='1569'>0.21665E+02</wgt>
<wgt id='1570'>0.22087E+02</wgt>
<wgt id='1571'>0.22421E+02</wgt>
<wgt id='1572'>0.22278E+02</wgt>
<wgt id='1573'>0.20958E+02</wgt>
<wgt id='1574'>0.22454E+02</wgt>
<wgt id='1575'>0.22007E+02</wgt>
<wgt id='1576'>0.21775E+02</wgt>
<wgt id='1577'>0.22431E+02</wgt>
<wgt id='1578'>0.22953E+02</wgt>
<wgt id='1579'>0.22033E+02</wgt>
<wgt id='1580'>0.22288E+02</wgt>
<wgt id='1581'>0.22361E+02</wgt>
<wgt id='1582'>0.21949E+02</wgt>
<wgt id='1583'>0.22495E+02</wgt>
<wgt id='1584'>0.22159E+02</wgt>
<wgt id='1585'>0.21695E+02</wgt>
<wgt id='1586'>0.22096E+02</wgt>
<wgt id='1587'>0.22200E+02</wgt>
<wgt id='1588'>0.22181E+02</wgt>
<wgt id='1589'>0.22814E+02</wgt>
<wgt id='1590'>0.22098E+02</wgt>
<wgt id='1591'>0.21831E+02</wgt>
<wgt id='1592'>0.22447E+02</wgt>
<wgt id='1593'>0.22092E+02</wgt>
<wgt id='1594'>0.22704E+02</wgt>
<wgt id='1595'>0.21824E+02</wgt>
<wgt id='1596'>0.22541E+02</wgt>
<wgt id='1597'>0.22195E+02</wgt>
<wgt id='1598'>0.22897E+02</wgt>
<wgt id='1599'>0.22663E+02</wgt>
<wgt id='1600'>0.22418E+02</wgt>
<wgt id='1601'>0.21877E+02</wgt>
<wgt id='1602'>0.22384E+02</wgt>
<wgt id='1700'>0.21363E+02</wgt>
<wgt id='1800'>0.25420E+02</wgt>
<wgt id='1850'>0.30360E+02</wgt>
<wgt id='1900'>0.25804E+02</wgt>
<wgt id='1950'>0.29724E+02</wgt>
</rwgt>
</event>
<event>
      4   9999  2.16956E+01  1.40605E+01 -1.00000E+00  1.76666E-01
      21    -1     0     0   502   501  0.000000000E+00  0.000000000E+00  9.373041971E+02  9.373041971E+02  0.000000000E+00  0.00000E+00  9.000E+00
      21    -1     0     0   501   511  0.000000000E+00  0.000000000E+00 -1.104379251E+01  1.104379251E+01  0.000000000E+00  0.00000E+00  9.000E+00
      25     1     1     2     0     0  1.370450670E+01 -3.144127724E+00  9.257725351E+02  9.342789790E+02  1.249988993E+02  0.00000E+00  9.000E+00
      21     1     1     2   502   511 -1.370450670E+01  3.144127724E+00  4.878694834E-01  1.406901061E+01  4.420712702E-07  0.00000E+00  9.000E+00
#rwgt            1           1   21.811996499274070                1        4098           0
<rwgt>
<wgt id='1001'>0.21696E+02</wgt>
<wgt id='1002'>0.17321E+02</wgt>
<wgt id='1003'>0.26825E+02</wgt>
<wgt id='1004'>0.17989E+02</wgt>
<wgt id='1005'>0.14717E+02</wgt>
<wgt id='1006'>0.21803E+02</wgt>
<wgt id='1007'>0.26718E+02</wgt>
<wgt id='1008'>0.20687E+02</wgt>
<wgt id='1009'>0.33829E+02</wgt>
<wgt id='2000'>0.21696E+02</wgt>
<wgt id='2001'>0.21683E+02</wgt>
<wgt id='2002'>0.21675E+02</wgt>
<wgt id='2003'>0.21640E+02</wgt>
<wgt id='2004'>0.21740E+02</wgt>
<wgt id='2005'>0.21723E+02</wgt>
<wgt id='2006'>0.21661E+02</wgt>
<wgt id='2007'>0.21744E+02</wgt>
<wgt id='2008'>0.21721E+02</wgt>
<wgt id='2009'>0.21699E+02</wgt>
<wgt id='2010'>0.21655E+02</wgt>
<wgt id='2011'>0.21667E+02</wgt>
<wgt id='2012'>0.21705E+02</wgt>
<wgt id='2013'>0.21655E+02</wgt>
<wgt id='2014'>0.21668E+02</wgt>
<wgt id='2015'>0.21683E+02</wgt>
<wgt id='2016'>0.21713E+02</wgt>
<wgt id='2017'>0.21679E+02</wgt>
<wgt id='2018'>0.21667E+02</wgt>
<wgt id='2019'>0.21709E+02</wgt>
<wgt id='2020'>0.21673E+02</wgt>
<wgt id='2021'>0.21720E+02</wgt>
<wgt id='2022'>0.21635E+02</wgt>
<wgt id='2023'>0.21723E+02</wgt>
<wgt id='2024'>0.21666E+02</wgt>
<wgt id='2025'>0.21640E+02</wgt>
<wgt id='2026'>0.21689E+02</wgt>
<wgt id='2027'>0.21650E+02</wgt>
<wgt id='2028'>0.21687E+02</wgt>
<wgt id='2029'>0.21866E+02</wgt>
<wgt id='2030'>0.21747E+02</wgt>
<wgt id='2031'>0.21684E+02</wgt>
<wgt id='2032'>0.21780E+02</wgt>
<wgt id='2033'>0.21745E+02</wgt>
<wgt id='2034'>0.21624E+02</wgt>
<wgt id='2035'>0.21668E+02</wgt>
<wgt id='2036'>0.21660E+02</wgt>
<wgt id='2037'>0.21667E+02</wgt>
<wgt id='2038'>0.21708E+02</wgt>
<wgt id='2039'>0.21781E+02</wgt>
<wgt id='2040'>0.21744E+02</wgt>
<wgt id='2041'>0.21682E+02</wgt>
<wgt id='2042'>0.21561E+02</wgt>
<wgt id='2043'>0.21731E+02</wgt>
<wgt id='2044'>0.21709E+02</wgt>
<wgt id='2045'>0.21684E+02</wgt>
<wgt id='2046'>0.21727E+02</wgt>
<wgt id='2047'>0.21738E+02</wgt>
<wgt id='2048'>0.21653E+02</wgt>
<wgt id='2049'>0.21684E+02</wgt>
<wgt id='2050'>0.21713E+02</wgt>
<wgt id='2051'>0.21730E+02</wgt>
<wgt id='2052'>0.21692E+02</wgt>
<wgt id='2053'>0.21708E+02</wgt>
<wgt id='2054'>0.21707E+02</wgt>
<wgt id='2055'>0.21707E+02</wgt>
<wgt id='2056'>0.21698E+02</wgt>
<wgt id='2057'>0.21691E+02</wgt>
<wgt id='2058'>0.21694E+02</wgt>
<wgt id='2059'>0.21683E+02</wgt>
<wgt id='2060'>0.21702E+02</wgt>
<wgt id='2061'>0.21668E+02</wgt>
<wgt id='2062'>0.21682E+02</wgt>
<wgt id='2063'>0.21708E+02</wgt>
<wgt id='2064'>0.21677E+02</wgt>
<wgt id='2065'>0.21717E+02</wgt>
<wgt id='2066'>0.21695E+02</wgt>
<wgt id='2067'>0.21693E+02</wgt>
<wgt id='2068'>0.21703E+02</wgt>
<wgt id='2069'>0.21707E+02</wgt>
<wgt id='2070'>0.21679E+02</wgt>
<wgt id='2071'>0.21682E+02</wgt>
<wgt id='2072'>0.21698E+02</wgt>
<wgt id='2073'>0.21691E+02</wgt>
<wgt id='2074'>0.21696E+02</wgt>
<wgt id='2075'>0.21687E+02</wgt>
<wgt id='2076'>0.21703E+02</wgt>
<wgt id='2077'>0.21681E+02</wgt>
<wgt id='2078'>0.21694E+02</wgt>
<wgt id='2079'>0.21699E+02</wgt>
<wgt id='2080'>0.21706E+02</wgt>
<wgt id='2081'>0.21704E+02</wgt>
<wgt id='2082'>0.21703E+02</wgt>
<wgt id='2083'>0.21704E+02</wgt>
<wgt id='2084'>0.21698E+02</wgt>
<wgt id='2085'>0.21706E+02</wgt>
<wgt id='2086'>0.21691E+02</wgt>
<wgt id='2087'>0.21687E+02</wgt>
<wgt id='2088'>0.21698E+02</wgt>
<wgt id='2089'>0.21679E+02</wgt>
<wgt id='2090'>0.21702E+02</wgt>
<wgt id='2091'>0.21701E+02</wgt>
<wgt id='2092'>0.21697E+02</wgt>
<wgt id='2093'>0.21694E+02</wgt>
<wgt id='2094'>0.21700E+02</wgt>
<wgt id='2095'>0.21704E+02</wgt>
<wgt id='2096'>0.21687E+02</wgt>
<wgt id='2097'>0.21708E+02</wgt>
<wgt id='2098'>0.21690E+02</wgt>
<wgt id='2099'>0.21695E+02</wgt>
<wgt id='2100'>0.21701E+02</wgt>
<wgt id='2101'>0.21077E+02</wgt>
<wgt id='2102'>0.22474E+02</wgt>
<wgt id='2104'>0.18185E+02</wgt>
<wgt id='2105'>0.18879E+02</wgt>
<wgt id='2106'>0.19580E+02</wgt>
<wgt id='2107'>0.20192E+02</wgt>
<wgt id='2108'>0.21319E+02</wgt>
<wgt id='2109'>0.22135E+02</wgt>
<wgt id='2110'>0.23247E+02</wgt>
<wgt id='2111'>0.24104E+02</wgt>
<wgt id='3000'>0.23231E+02</wgt>
<wgt id='3001'>0.23231E+02</wgt>
<wgt id='3002'>0.23259E+02</wgt>
<wgt id='3003'>0.23165E+02</wgt>
<wgt id='3004'>0.23283E+02</wgt>
<wgt id='3005'>0.23181E+02</wgt>
<wgt id='3006'>0.23197E+02</wgt>
<wgt id='3007'>0.23182E+02</wgt>
<wgt id='3008'>0.23222E+02</wgt>
<wgt id='3009'>0.23190E+02</wgt>
<wgt id='3010'>0.23173E+02</wgt>
<wgt id='3011'>0.23222E+02</wgt>
<wgt id='3012'>0.23252E+02</wgt>
<wgt id='3013'>0.23257E+02</wgt>
<wgt id='3014'>0.23211E+02</wgt>
<wgt id='3015'>0.23199E+02</wgt>
<wgt id='3016'>0.23257E+02</wgt>
<wgt id='3017'>0.23229E+02</wgt>
<wgt id='3018'>0.23252E+02</wgt>
<wgt id='3019'>0.23225E+02</wgt>
<wgt id='3020'>0.23257E+02</wgt>
<wgt id='3021'>0.23248E+02</wgt>
<wgt id='3022'>0.23210E+02</wgt>
<wgt id='3023'>0.23202E+02</wgt>
<wgt id='3024'>0.23230E+02</wgt>
<wgt id='3025'>0.23238E+02</wgt>
<wgt id='3026'>0.23197E+02</wgt>
<wgt id='3027'>0.23255E+02</wgt>
<wgt id='3028'>0.23225E+02</wgt>
<wgt id='3029'>0.23219E+02</wgt>
<wgt id='3030'>0.23333E+02</wgt>
<wgt id='3031'>0.23278E+02</wgt>
<wgt id='3032'>0.23164E+02</wgt>
<wgt id='3033'>0.23160E+02</wgt>
<wgt id='3034'>0.23225E+02</wgt>
<wgt id='3035'>0.23100E+02</wgt>
<wgt id='3036'>0.23246E+02</wgt>
<wgt id='3037'>0.23321E+02</wgt>
<wgt id='3038'>0.23238E+02</wgt>
<wgt id='3039'>0.23265E+02</wgt>
<wgt id='3040'>0.23319E+02</wgt>
<wgt id='3041'>0.23268E+02</wgt>
<wgt id='3042'>0.23152E+02</wgt>
<wgt id='3043'>0.23153E+02</wgt>
<wgt id='3044'>0.23263E+02</wgt>
<wgt id='3045'>0.23256E+02</wgt>
<wgt id='3046'>0.23310E+02</wgt>
<wgt id='3047'>0.23213E+02</wgt>
<wgt id='3048'>0.23274E+02</wgt>
<wgt id='3049'>0.23222E+02</wgt>
<wgt id='3050'>0.23183E+02</wgt>
<wgt id='3051'>0.23281E+02</wgt>
<wgt id='3052'>0.23196E+02</wgt>
<wgt id='3053'>0.23220E+02</wgt>
<wgt id='3054'>0.23239E+02</wgt>
<wgt id='3055'>0.23198E+02</wgt>
<wgt id='3056'>0.23223E+02</wgt>
<wgt id='3057'>0.23214E+02</wgt>
<wgt id='3058'>0.23218E+02</wgt>
<wgt id='3059'>0.23213E+02</wgt>
<wgt id='3060'>0.23257E+02</wgt>
<wgt id='3061'>0.23219E+02</wgt>
<wgt id='3062'>0.23246E+02</wgt>
<wgt id='3063'>0.23223E+02</wgt>
<wgt id='3064'>0.23218E+02</wgt>
<wgt id='3065'>0.23210E+02</wgt>
<wgt id='3066'>0.23241E+02</wgt>
<wgt id='3067'>0.23195E+02</wgt>
<wgt id='3068'>0.23241E+02</wgt>
<wgt id='3069'>0.23219E+02</wgt>
<wgt id='3070'>0.23232E+02</wgt>
<wgt id='3071'>0.23219E+02</wgt>
<wgt id='3072'>0.23229E+02</wgt>
<wgt id='3073'>0.23219E+02</wgt>
<wgt id='3074'>0.23251E+02</wgt>
<wgt id='3075'>0.23233E+02</wgt>
<wgt id='3076'>0.23234E+02</wgt>
<wgt id='3077'>0.23240E+02</wgt>
<wgt id='3078'>0.23237E+02</wgt>
<wgt id='3079'>0.23222E+02</wgt>
<wgt id='3080'>0.23227E+02</wgt>
<wgt id='3081'>0.23228E+02</wgt>
<wgt id='3082'>0.23230E+02</wgt>
<wgt id='3083'>0.23214E+02</wgt>
<wgt id='3084'>0.23213E+02</wgt>
<wgt id='3085'>0.23249E+02</wgt>
<wgt id='3086'>0.23211E+02</wgt>
<wgt id='3087'>0.23215E+02</wgt>
<wgt id='3088'>0.23221E+02</wgt>
<wgt id='3089'>0.23228E+02</wgt>
<wgt id='3090'>0.23244E+02</wgt>
<wgt id='3091'>0.23236E+02</wgt>
<wgt id='3092'>0.23230E+02</wgt>
<wgt id='3093'>0.23232E+02</wgt>
<wgt id='3094'>0.23243E+02</wgt>
<wgt id='3095'>0.23228E+02</wgt>
<wgt id='3096'>0.23228E+02</wgt>
<wgt id='3097'>0.23226E+02</wgt>
<wgt id='3098'>0.23221E+02</wgt>
<wgt id='3099'>0.23231E+02</wgt>
<wgt id='3100'>0.23238E+02</wgt>
<wgt id='3101'>0.22477E+02</wgt>
<wgt id='3102'>0.24093E+02</wgt>
<wgt id='5000'>0.22655E+02</wgt>
<wgt id='5001'>0.22651E+02</wgt>
<wgt id='5002'>0.22681E+02</wgt>
<wgt id='5003'>0.22645E+02</wgt>
<wgt id='5004'>0.22729E+02</wgt>
<wgt id='5005'>0.22806E+02</wgt>
<wgt id='5006'>0.22514E+02</wgt>
<wgt id='5007'>0.22574E+02</wgt>
<wgt id='5008'>0.22785E+02</wgt>
<wgt id='5009'>0.22547E+02</wgt>
<wgt id='5010'>0.22686E+02</wgt>
<wgt id='5011'>0.22895E+02</wgt>
<wgt id='5012'>0.22392E+02</wgt>
<wgt id='5013'>0.23207E+02</wgt>
<wgt id='5014'>0.22328E+02</wgt>
<wgt id='5015'>0.22476E+02</wgt>
<wgt id='5016'>0.23099E+02</wgt>
<wgt id='5017'>0.22425E+02</wgt>
<wgt id='5018'>0.22896E+02</wgt>
<wgt id='5019'>0.22532E+02</wgt>
<wgt id='5020'>0.22752E+02</wgt>
<wgt id='5021'>0.22511E+02</wgt>
<wgt id='5022'>0.22745E+02</wgt>
<wgt id='5023'>0.22499E+02</wgt>
<wgt id='5024'>0.22830E+02</wgt>
<wgt id='5025'>0.22722E+02</wgt>
<wgt id='5026'>0.22600E+02</wgt>
<wgt id='5027'>0.22605E+02</wgt>
<wgt id='5028'>0.22730E+02</wgt>
<wgt id='5029'>0.22892E+02</wgt>
<wgt id='5030'>0.22499E+02</wgt>
<wgt id='5031'>0.22698E+02</wgt>
<wgt id='5032'>0.22583E+02</wgt>
<wgt id='5033'>0.22522E+02</wgt>
<wgt id='5034'>0.22787E+02</wgt>
<wgt id='5035'>0.22596E+02</wgt>
<wgt id='5036'>0.22700E+02</wgt>
<wgt id='5037'>0.22283E+02</wgt>
<wgt id='5038'>0.23087E+02</wgt>
<wgt id='5039'>0.23058E+02</wgt>
<wgt id='5040'>0.22460E+02</wgt>
<wgt id='5041'>0.22734E+02</wgt>
<wgt id='5042'>0.22673E+02</wgt>
<wgt id='5043'>0.22834E+02</wgt>
<wgt id='5044'>0.22732E+02</wgt>
<wgt id='5045'>0.22268E+02</wgt>
<wgt id='5046'>0.22661E+02</wgt>
<wgt id='5047'>0.22171E+02</wgt>
<wgt id='5048'>0.22823E+02</wgt>
<wgt id='5049'>0.22620E+02</wgt>
<wgt id='5050'>0.22673E+02</wgt>
<wgt id='5051'>0.22675E+02</wgt>
<wgt id='5052'>0.22613E+02</wgt>
<wgt id='5053'>0.22060E+02</wgt>
<wgt id='5054'>0.22449E+02</wgt>
<wgt id='5055'>0.22554E+02</wgt>
<wgt id='5056'>0.22832E+02</wgt>
<wgt id='5060'>0.21786E+02</wgt>
<wgt id='5070'>0.23587E+02</wgt>
<wgt id='4000'>0.23512E+02</wgt>
<wgt id='4001'>0.23472E+02</wgt>
<wgt id='4002'>0.23545E+02</wgt>
<wgt id='4003'>0.23160E+02</wgt>
<wgt id='4004'>0.23633E+02</wgt>
<wgt id='4005'>0.23555E+02</wgt>
<wgt id='4006'>0.23489E+02</wgt>
<wgt id='4007'>0.23272E+02</wgt>
<wgt id='4008'>0.23626E+02</wgt>
<wgt id='4009'>0.23621E+02</wgt>
<wgt id='4010'>0.23625E+02</wgt>
<wgt id='4011'>0.23643E+02</wgt>
<wgt id='4012'>0.23404E+02</wgt>
<wgt id='4013'>0.23618E+02</wgt>
<wgt id='4014'>0.23474E+02</wgt>
<wgt id='4015'>0.23926E+02</wgt>
<wgt id='4016'>0.23257E+02</wgt>
<wgt id='4017'>0.23145E+02</wgt>
<wgt id='4018'>0.23953E+02</wgt>
<wgt id='4019'>0.23365E+02</wgt>
<wgt id='4020'>0.23653E+02</wgt>
<wgt id='4021'>0.23487E+02</wgt>
<wgt id='4022'>0.23561E+02</wgt>
<wgt id='4023'>0.23713E+02</wgt>
<wgt id='4024'>0.23302E+02</wgt>
<wgt id='4025'>0.23711E+02</wgt>
<wgt id='4026'>0.23320E+02</wgt>
<wgt id='4027'>0.23659E+02</wgt>
<wgt id='4028'>0.23305E+02</wgt>
<wgt id='4029'>0.23639E+02</wgt>
<wgt id='4030'>0.23468E+02</wgt>
<wgt id='4031'>0.23534E+02</wgt>
<wgt id='4032'>0.23485E+02</wgt>
<wgt id='4033'>0.23488E+02</wgt>
<wgt id='4034'>0.23568E+02</wgt>
<wgt id='4035'>0.23092E+02</wgt>
<wgt id='4036'>0.23909E+02</wgt>
<wgt id='4037'>0.23255E+02</wgt>
<wgt id='4038'>0.23861E+02</wgt>
<wgt id='4039'>0.23316E+02</wgt>
<wgt id='4040'>0.23671E+02</wgt>
<wgt id='4041'>0.23430E+02</wgt>
<wgt id='4042'>0.23565E+02</wgt>
<wgt id='4043'>0.23046E+02</wgt>
<wgt id='4044'>0.23867E+02</wgt>
<wgt id='4045'>0.23988E+02</wgt>
<wgt id='4046'>0.23397E+02</wgt>
<wgt id='4047'>0.23520E+02</wgt>
<wgt id='4048'>0.23544E+02</wgt>
<wgt id='4049'>0.23550E+02</wgt>
<wgt id='4050'>0.23652E+02</wgt>
<wgt id='4051'>0.23551E+02</wgt>
<wgt id='4052'>0.23487E+02</wgt>
<wgt id='4053'>0.22732E+02</wgt>
<wgt id='4054'>0.23493E+02</wgt>
<wgt id='4055'>0.23465E+02</wgt>
<wgt id='4056'>0.23617E+02</wgt>
<wgt id='4060'>0.22638E+02</wgt>
<wgt id='4070'>0.24459E+02</wgt>
<wgt id='4080'>0.26897E+02</wgt>
<wgt id='6000'>0.23320E+02</wgt>
<wgt id='6001'>0.23346E+02</wgt>
<wgt id='6002'>0.23292E+02</wgt>
<wgt id='6003'>0.23327E+02</wgt>
<wgt id='6004'>0.23315E+02</wgt>
<wgt id='6005'>0.23373E+02</wgt>
<wgt id='6006'>0.23270E+02</wgt>
<wgt id='6007'>0.23260E+02</wgt>
<wgt id='6008'>0.23387E+02</wgt>
<wgt id='6009'>0.23399E+02</wgt>
<wgt id='6010'>0.23243E+02</wgt>
<wgt id='6011'>0.23359E+02</wgt>
<wgt id='6012'>0.23235E+02</wgt>
<wgt id='6013'>0.23299E+02</wgt>
<wgt id='6014'>0.23358E+02</wgt>
<wgt id='6015'>0.23281E+02</wgt>
<wgt id='6016'>0.23342E+02</wgt>
<wgt id='6017'>0.23189E+02</wgt>
<wgt id='6018'>0.23474E+02</wgt>
<wgt id='6019'>0.23312E+02</wgt>
<wgt id='6020'>0.23326E+02</wgt>
<wgt id='6021'>0.23264E+02</wgt>
<wgt id='6022'>0.23394E+02</wgt>
<wgt id='6023'>0.23151E+02</wgt>
<wgt id='6024'>0.23436E+02</wgt>
<wgt id='6025'>0.23519E+02</wgt>
<wgt id='6026'>0.23067E+02</wgt>
<wgt id='6027'>0.23355E+02</wgt>
<wgt id='6028'>0.23324E+02</wgt>
<wgt id='6029'>0.23203E+02</wgt>
<wgt id='6030'>0.23460E+02</wgt>
<wgt id='6031'>0.23040E+02</wgt>
<wgt id='6032'>0.23634E+02</wgt>
<wgt id='6033'>0.23450E+02</wgt>
<wgt id='6034'>0.23191E+02</wgt>
<wgt id='6035'>0.23377E+02</wgt>
<wgt id='6036'>0.23216E+02</wgt>
<wgt id='6037'>0.23349E+02</wgt>
<wgt id='6038'>0.23314E+02</wgt>
<wgt id='6039'>0.23237E+02</wgt>
<wgt id='6040'>0.23413E+02</wgt>
<wgt id='6041'>0.23158E+02</wgt>
<wgt id='6042'>0.23509E+02</wgt>
<wgt id='6043'>0.23561E+02</wgt>
<wgt id='6044'>0.23252E+02</wgt>
<wgt id='6045'>0.23285E+02</wgt>
<wgt id='6046'>0.23411E+02</wgt>
<wgt id='6047'>0.23354E+02</wgt>
<wgt id='6048'>0.23356E+02</wgt>
<wgt id='6049'>0.23302E+02</wgt>
<wgt id='6050'>0.23335E+02</wgt>
<wgt id='7000'>0.22052E+02</wgt>
<wgt id='7001'>0.22065E+02</wgt>
<wgt id='7002'>0.22035E+02</wgt>
<wgt id='7003'>0.22108E+02</wgt>
<wgt id='7004'>0.21996E+02</wgt>
<wgt id='7005'>0.22080E+02</wgt>
<wgt id='7006'>0.22041E+02</wgt>
<wgt id='7007'>0.22009E+02</wgt>
<wgt id='7008'>0.22095E+02</wgt>
<wgt id='7009'>0.22091E+02</wgt>
<wgt id='7010'>0.22015E+02</wgt>
<wgt id='7011'>0.21891E+02</wgt>
<wgt id='7012'>0.22122E+02</wgt>
<wgt id='7013'>0.22046E+02</wgt>
<wgt id='7014'>0.22059E+02</wgt>
<wgt id='7015'>0.22009E+02</wgt>
<wgt id='7016'>0.22099E+02</wgt>
<wgt id='7017'>0.21898E+02</wgt>
<wgt id='7018'>0.22136E+02</wgt>
<wgt id='7019'>0.22040E+02</wgt>
<wgt id='7020'>0.22069E+02</wgt>
<wgt id='7021'>0.22057E+02</wgt>
<wgt id='7022'>0.22048E+02</wgt>
<wgt id='7023'>0.22115E+02</wgt>
<wgt id='7024'>0.21978E+02</wgt>
<wgt id='7025'>0.22091E+02</wgt>
<wgt id='7026'>0.21957E+02</wgt>
<wgt id='7027'>0.22070E+02</wgt>
<wgt id='7028'>0.22062E+02</wgt>
<wgt id='7029'>0.22162E+02</wgt>
<wgt id='7030'>0.21754E+02</wgt>
<wgt id='7031'>0.21933E+02</wgt>
<wgt id='7032'>0.22308E+02</wgt>
<wgt id='7033'>0.22096E+02</wgt>
<wgt id='7034'>0.21983E+02</wgt>
<wgt id='7035'>0.21884E+02</wgt>
<wgt id='7036'>0.22141E+02</wgt>
<wgt id='7037'>0.22049E+02</wgt>
<wgt id='7038'>0.22080E+02</wgt>
<wgt id='7039'>0.21946E+02</wgt>
<wgt id='7040'>0.22131E+02</wgt>
<wgt id='7041'>0.22155E+02</wgt>
<wgt id='7042'>0.21910E+02</wgt>
<wgt id='7043'>0.22072E+02</wgt>
<wgt id='7044'>0.21938E+02</wgt>
<wgt id='7045'>0.21958E+02</wgt>
<wgt id='7046'>0.22153E+02</wgt>
<wgt id='7047'>0.22115E+02</wgt>
<wgt id='7048'>0.22030E+02</wgt>
<wgt id='7049'>0.22088E+02</wgt>
<wgt id='7050'>0.22061E+02</wgt>
<wgt id='7060'>0.35619E+02</wgt>
<wgt id='8000'>0.21901E+02</wgt>
<wgt id='8001'>0.21897E+02</wgt>
<wgt id='8002'>0.21907E+02</wgt>
<wgt id='8003'>0.21902E+02</wgt>
<wgt id='8004'>0.21901E+02</wgt>
<wgt id='8005'>0.21861E+02</wgt>
<wgt id='8006'>0.21916E+02</wgt>
<wgt id='8007'>0.21923E+02</wgt>
<wgt id='8008'>0.21946E+02</wgt>
<wgt id='8009'>0.21991E+02</wgt>
<wgt id='8010'>0.21883E+02</wgt>
<wgt id='8011'>0.21906E+02</wgt>
<wgt id='8012'>0.21840E+02</wgt>
<wgt id='8013'>0.21866E+02</wgt>
<wgt id='8014'>0.21942E+02</wgt>
<wgt id='8015'>0.21886E+02</wgt>
<wgt id='8016'>0.21931E+02</wgt>
<wgt id='8017'>0.21923E+02</wgt>
<wgt id='8018'>0.21970E+02</wgt>
<wgt id='8019'>0.21865E+02</wgt>
<wgt id='8020'>0.21962E+02</wgt>
<wgt id='8021'>0.21866E+02</wgt>
<wgt id='8022'>0.22013E+02</wgt>
<wgt id='8023'>0.21835E+02</wgt>
<wgt id='8024'>0.21773E+02</wgt>
<wgt id='8025'>0.21812E+02</wgt>
<wgt id='8026'>0.21906E+02</wgt>
<wgt id='8027'>0.21928E+02</wgt>
<wgt id='8028'>0.21912E+02</wgt>
<wgt id='8029'>0.22186E+02</wgt>
<wgt id='8500'>0.23398E+02</wgt>
<wgt id='8501'>0.23213E+02</wgt>
<wgt id='8502'>0.23341E+02</wgt>
<wgt id='8503'>0.23456E+02</wgt>
<wgt id='8504'>0.23333E+02</wgt>
<wgt id='8505'>0.23463E+02</wgt>
<wgt id='8506'>0.23370E+02</wgt>
<wgt id='8507'>0.23376E+02</wgt>
<wgt id='8508'>0.23278E+02</wgt>
<wgt id='8509'>0.23437E+02</wgt>
<wgt id='8510'>0.23344E+02</wgt>
<wgt id='8511'>0.23305E+02</wgt>
<wgt id='8512'>0.23530E+02</wgt>
<wgt id='8513'>0.23448E+02</wgt>
<wgt id='8514'>0.23424E+02</wgt>
<wgt id='8515'>0.23482E+02</wgt>
<wgt id='8516'>0.23372E+02</wgt>
<wgt id='8517'>0.23506E+02</wgt>
<wgt id='8518'>0.23225E+02</wgt>
<wgt id='8519'>0.23178E+02</wgt>
<wgt id='8520'>0.23248E+02</wgt>
<wgt id='8521'>0.23189E+02</wgt>
<wgt id='8522'>0.23587E+02</wgt>
<wgt id='8523'>0.23253E+02</wgt>
<wgt id='8524'>0.23427E+02</wgt>
<wgt id='8525'>0.23436E+02</wgt>
<wgt id='8526'>0.23422E+02</wgt>
<wgt id='8527'>0.23424E+02</wgt>
<wgt id='8528'>0.23343E+02</wgt>
<wgt id='8529'>0.23344E+02</wgt>
<wgt id='8530'>0.23384E+02</wgt>
<wgt id='8531'>0.23396E+02</wgt>
<wgt id='8532'>0.23390E+02</wgt>
<wgt id='8533'>0.23349E+02</wgt>
<wgt id='8534'>0.23417E+02</wgt>
<wgt id='8535'>0.23474E+02</wgt>
<wgt id='8536'>0.23373E+02</wgt>
<wgt id='8537'>0.23407E+02</wgt>
<wgt id='8538'>0.23386E+02</wgt>
<wgt id='8539'>0.23407E+02</wgt>
<wgt id='8540'>0.23424E+02</wgt>
<wgt id='8541'>0.23414E+02</wgt>
<wgt id='8542'>0.23399E+02</wgt>
<wgt id='8543'>0.23353E+02</wgt>
<wgt id='8544'>0.23433E+02</wgt>
<wgt id='8545'>0.23410E+02</wgt>
<wgt id='8546'>0.23433E+02</wgt>
<wgt id='8547'>0.23381E+02</wgt>
<wgt id='8548'>0.23377E+02</wgt>
<wgt id='8549'>0.23398E+02</wgt>
<wgt id='8550'>0.23394E+02</wgt>
<wgt id='8551'>0.23397E+02</wgt>
<wgt id='8552'>0.23387E+02</wgt>
<wgt id='8553'>0.23375E+02</wgt>
<wgt id='8554'>0.23389E+02</wgt>
<wgt id='8555'>0.23398E+02</wgt>
<wgt id='8556'>0.23391E+02</wgt>
<wgt id='8557'>0.23402E+02</wgt>
<wgt id='8558'>0.23420E+02</wgt>
<wgt id='8559'>0.23391E+02</wgt>
<wgt id='8560'>0.23379E+02</wgt>
<wgt id='8561'>0.23406E+02</wgt>
<wgt id='8562'>0.23387E+02</wgt>
<wgt id='8563'>0.23400E+02</wgt>
<wgt id='8564'>0.23395E+02</wgt>
<wgt id='8565'>0.23407E+02</wgt>
<wgt id='8566'>0.23411E+02</wgt>
<wgt id='8567'>0.23405E+02</wgt>
<wgt id='8568'>0.23412E+02</wgt>
<wgt id='8569'>0.23408E+02</wgt>
<wgt id='8570'>0.23393E+02</wgt>
<wgt id='8571'>0.23380E+02</wgt>
<wgt id='8572'>0.23384E+02</wgt>
<wgt id='8573'>0.23384E+02</wgt>
<wgt id='8574'>0.23399E+02</wgt>
<wgt id='8575'>0.23391E+02</wgt>
<wgt id='8576'>0.23400E+02</wgt>
<wgt id='8577'>0.23384E+02</wgt>
<wgt id='8578'>0.23402E+02</wgt>
<wgt id='8579'>0.23416E+02</wgt>
<wgt id='8580'>0.23388E+02</wgt>
<wgt id='8581'>0.23406E+02</wgt>
<wgt id='8582'>0.23385E+02</wgt>
<wgt id='8583'>0.23408E+02</wgt>
<wgt id='8584'>0.23413E+02</wgt>
<wgt id='8585'>0.23406E+02</wgt>
<wgt id='8586'>0.23421E+02</wgt>
<wgt id='8587'>0.23401E+02</wgt>
<wgt id='8588'>0.23396E+02</wgt>
<wgt id='8589'>0.23398E+02</wgt>
<wgt id='8590'>0.23396E+02</wgt>
<wgt id='8591'>0.23388E+02</wgt>
<wgt id='8592'>0.23395E+02</wgt>
<wgt id='8593'>0.23389E+02</wgt>
<wgt id='8594'>0.23397E+02</wgt>
<wgt id='8595'>0.23398E+02</wgt>
<wgt id='8596'>0.23392E+02</wgt>
<wgt id='8597'>0.23404E+02</wgt>
<wgt id='8598'>0.23405E+02</wgt>
<wgt id='8599'>0.23402E+02</wgt>
<wgt id='8600'>0.23398E+02</wgt>
<wgt id='8601'>0.22812E+02</wgt>
<wgt id='8602'>0.24028E+02</wgt>
<wgt id='9000'>0.22241E+02</wgt>
<wgt id='9001'>0.22322E+02</wgt>
<wgt id='9002'>0.22173E+02</wgt>
<wgt id='9003'>0.22338E+02</wgt>
<wgt id='9004'>0.22337E+02</wgt>
<wgt id='9005'>0.22306E+02</wgt>
<wgt id='9006'>0.22362E+02</wgt>
<wgt id='9007'>0.22252E+02</wgt>
<wgt id='9008'>0.22231E+02</wgt>
<wgt id='9009'>0.22291E+02</wgt>
<wgt id='9010'>0.22282E+02</wgt>
<wgt id='9011'>0.22277E+02</wgt>
<wgt id='9012'>0.22294E+02</wgt>
<wgt id='9013'>0.22449E+02</wgt>
<wgt id='9014'>0.22215E+02</wgt>
<wgt id='9015'>0.22027E+02</wgt>
<wgt id='9016'>0.22202E+02</wgt>
<wgt id='9017'>0.22205E+02</wgt>
<wgt id='9018'>0.22383E+02</wgt>
<wgt id='9019'>0.22348E+02</wgt>
<wgt id='9020'>0.22458E+02</wgt>
<wgt id='9021'>0.21981E+02</wgt>
<wgt id='9022'>0.22273E+02</wgt>
<wgt id='9023'>0.22073E+02</wgt>
<wgt id='9024'>0.22136E+02</wgt>
<wgt id='9025'>0.22345E+02</wgt>
<wgt id='9026'>0.22215E+02</wgt>
<wgt id='9027'>0.22195E+02</wgt>
<wgt id='9028'>0.22271E+02</wgt>
<wgt id='9029'>0.22273E+02</wgt>
<wgt id='9030'>0.22209E+02</wgt>
<wgt id='9031'>0.22209E+02</wgt>
<wgt id='9032'>0.22268E+02</wgt>
<wgt id='9033'>0.22268E+02</wgt>
<wgt id='9034'>0.22265E+02</wgt>
<wgt id='9035'>0.22285E+02</wgt>
<wgt id='9036'>0.22253E+02</wgt>
<wgt id='9037'>0.22254E+02</wgt>
<wgt id='9038'>0.22254E+02</wgt>
<wgt id='9039'>0.22234E+02</wgt>
<wgt id='9040'>0.22214E+02</wgt>
<wgt id='9041'>0.22234E+02</wgt>
<wgt id='9042'>0.22241E+02</wgt>
<wgt id='9043'>0.22201E+02</wgt>
<wgt id='9044'>0.22256E+02</wgt>
<wgt id='9045'>0.22236E+02</wgt>
<wgt id='9046'>0.22205E+02</wgt>
<wgt id='9047'>0.22246E+02</wgt>
<wgt id='9048'>0.22250E+02</wgt>
<wgt id='9049'>0.22230E+02</wgt>
<wgt id='9050'>0.22242E+02</wgt>
<wgt id='9051'>0.22256E+02</wgt>
<wgt id='9052'>0.22260E+02</wgt>
<wgt id='9053'>0.22250E+02</wgt>
<wgt id='9054'>0.22233E+02</wgt>
<wgt id='9055'>0.22234E+02</wgt>
<wgt id='9056'>0.22255E+02</wgt>
<wgt id='9057'>0.22241E+02</wgt>
<wgt id='9058'>0.22216E+02</wgt>
<wgt id='9059'>0.22232E+02</wgt>
<wgt id='9060'>0.22242E+02</wgt>
<wgt id='9061'>0.22239E+02</wgt>
<wgt id='9062'>0.22249E+02</wgt>
<wgt id='9063'>0.22245E+02</wgt>
<wgt id='9064'>0.22247E+02</wgt>
<wgt id='9065'>0.22233E+02</wgt>
<wgt id='9066'>0.22234E+02</wgt>
<wgt id='9067'>0.22240E+02</wgt>
<wgt id='9068'>0.22244E+02</wgt>
<wgt id='9069'>0.22262E+02</wgt>
<wgt id='9070'>0.22238E+02</wgt>
<wgt id='9071'>0.22251E+02</wgt>
<wgt id='9072'>0.22256E+02</wgt>
<wgt id='9073'>0.22238E+02</wgt>
<wgt id='9074'>0.22248E+02</wgt>
<wgt id='9075'>0.22241E+02</wgt>
<wgt id='9076'>0.22241E+02</wgt>
<wgt id='9077'>0.22248E+02</wgt>
<wgt id='9078'>0.22249E+02</wgt>
<wgt id='9079'>0.22235E+02</wgt>
<wgt id='9080'>0.22259E+02</wgt>
<wgt id='9081'>0.22242E+02</wgt>
<wgt id='9082'>0.22245E+02</wgt>
<wgt id='9083'>0.22236E+02</wgt>
<wgt id='9084'>0.22228E+02</wgt>
<wgt id='9085'>0.22226E+02</wgt>
<wgt id='9086'>0.22247E+02</wgt>
<wgt id='9087'>0.22219E+02</wgt>
<wgt id='9088'>0.22230E+02</wgt>
<wgt id='9089'>0.22233E+02</wgt>
<wgt id='9090'>0.22245E+02</wgt>
<wgt id='9091'>0.22237E+02</wgt>
<wgt id='9092'>0.22238E+02</wgt>
<wgt id='9093'>0.22236E+02</wgt>
<wgt id='9094'>0.22236E+02</wgt>
<wgt id='9095'>0.22244E+02</wgt>
<wgt id='9096'>0.22235E+02</wgt>
<wgt id='9097'>0.22243E+02</wgt>
<wgt id='9098'>0.22240E+02</wgt>
<wgt id='9099'>0.22235E+02</wgt>
<wgt id='9100'>0.22242E+02</wgt>
<wgt id='9101'>0.21672E+02</wgt>
<wgt id='9102'>0.22837E+02</wgt>
<wgt id='10000'>0.23397E+02</wgt>
<wgt id='10001'>0.23364E+02</wgt>
<wgt id='10002'>0.23235E+02</wgt>
<wgt id='10003'>0.23395E+02</wgt>
<wgt id='10004'>0.23347E+02</wgt>
<wgt id='10005'>0.23271E+02</wgt>
<wgt id='10006'>0.23208E+02</wgt>
<wgt id='10007'>0.23376E+02</wgt>
<wgt id='10008'>0.23387E+02</wgt>
<wgt id='10009'>0.23320E+02</wgt>
<wgt id='10010'>0.23389E+02</wgt>
<wgt id='10011'>0.23273E+02</wgt>
<wgt id='10012'>0.23267E+02</wgt>
<wgt id='10013'>0.23415E+02</wgt>
<wgt id='10014'>0.23405E+02</wgt>
<wgt id='10015'>0.23481E+02</wgt>
<wgt id='10016'>0.23393E+02</wgt>
<wgt id='10017'>0.23363E+02</wgt>
<wgt id='10018'>0.23459E+02</wgt>
<wgt id='10019'>0.23005E+02</wgt>
<wgt id='10020'>0.23364E+02</wgt>
<wgt id='10021'>0.23375E+02</wgt>
<wgt id='10022'>0.23448E+02</wgt>
<wgt id='10023'>0.23428E+02</wgt>
<wgt id='10024'>0.23390E+02</wgt>
<wgt id='10025'>0.23381E+02</wgt>
<wgt id='10026'>0.23465E+02</wgt>
<wgt id='10027'>0.23424E+02</wgt>
<wgt id='10028'>0.23600E+02</wgt>
<wgt id='10029'>0.23405E+02</wgt>
<wgt id='10030'>0.23393E+02</wgt>
<wgt id='10031'>0.22812E+02</wgt>
<wgt id='10032'>0.24028E+02</wgt>
<wgt id='11000'>0.22240E+02</wgt>
<wgt id='11001'>0.21950E+02</wgt>
<wgt id='11002'>0.22136E+02</wgt>
<wgt id='11003'>0.22249E+02</wgt>
<wgt id='11004'>0.21994E+02</wgt>
<wgt id='11005'>0.22378E+02</wgt>
<wgt id='11006'>0.22256E+02</wgt>
<wgt id='11007'>0.22277E+02</wgt>
<wgt id='11008'>0.22241E+02</wgt>
<wgt id='11009'>0.22281E+02</wgt>
<wgt id='11010'>0.22308E+02</wgt>
<wgt id='11011'>0.22206E+02</wgt>
<wgt id='11012'>0.22197E+02</wgt>
<wgt id='11013'>0.22243E+02</wgt>
<wgt id='11014'>0.22217E+02</wgt>
<wgt id='11015'>0.22129E+02</wgt>
<wgt id='11016'>0.22290E+02</wgt>
<wgt id='11017'>0.22301E+02</wgt>
<wgt id='11018'>0.22254E+02</wgt>
<wgt id='11019'>0.22296E+02</wgt>
<wgt id='11020'>0.22245E+02</wgt>
<wgt id='11021'>0.22296E+02</wgt>
<wgt id='11022'>0.22218E+02</wgt>
<wgt id='11023'>0.22248E+02</wgt>
<wgt id='11024'>0.22121E+02</wgt>
<wgt id='11025'>0.22225E+02</wgt>
<wgt id='11026'>0.22242E+02</wgt>
<wgt id='11027'>0.22312E+02</wgt>
<wgt id='11028'>0.22209E+02</wgt>
<wgt id='11029'>0.21889E+02</wgt>
<wgt id='11030'>0.22240E+02</wgt>
<wgt id='11031'>0.21672E+02</wgt>
<wgt id='11032'>0.22837E+02</wgt>
<wgt id='12000'>0.20327E+02</wgt>
<wgt id='12001'>0.20305E+02</wgt>
<wgt id='12002'>0.20349E+02</wgt>
<wgt id='12003'>0.20355E+02</wgt>
<wgt id='12004'>0.20299E+02</wgt>
<wgt id='12005'>0.20342E+02</wgt>
<wgt id='12006'>0.20312E+02</wgt>
<wgt id='12007'>0.20391E+02</wgt>
<wgt id='12008'>0.20264E+02</wgt>
<wgt id='12009'>0.20315E+02</wgt>
<wgt id='12010'>0.20340E+02</wgt>
<wgt id='12011'>0.20195E+02</wgt>
<wgt id='12012'>0.20464E+02</wgt>
<wgt id='12013'>0.20301E+02</wgt>
<wgt id='12014'>0.20353E+02</wgt>
<wgt id='12015'>0.20440E+02</wgt>
<wgt id='12016'>0.20217E+02</wgt>
<wgt id='12017'>0.20397E+02</wgt>
<wgt id='12018'>0.20265E+02</wgt>
<wgt id='12019'>0.20480E+02</wgt>
<wgt id='12020'>0.20175E+02</wgt>
<wgt id='12021'>0.20352E+02</wgt>
<wgt id='12022'>0.20295E+02</wgt>
<wgt id='12023'>0.20092E+02</wgt>
<wgt id='12024'>0.20531E+02</wgt>
<wgt id='12025'>0.20130E+02</wgt>
<wgt id='12026'>0.20538E+02</wgt>
<wgt id='12027'>0.20671E+02</wgt>
<wgt id='12028'>0.20025E+02</wgt>
<wgt id='12050'>0.20327E+02</wgt>
<wgt id='12051'>0.20388E+02</wgt>
<wgt id='12052'>0.20222E+02</wgt>
<wgt id='12053'>0.20384E+02</wgt>
<wgt id='12054'>0.20259E+02</wgt>
<wgt id='12055'>0.20156E+02</wgt>
<wgt id='12056'>0.20799E+02</wgt>
<wgt id='12057'>0.20351E+02</wgt>
<wgt id='12058'>0.20324E+02</wgt>
<wgt id='12059'>0.20454E+02</wgt>
<wgt id='12060'>0.20214E+02</wgt>
<wgt id='12061'>0.20183E+02</wgt>
<wgt id='12062'>0.20349E+02</wgt>
<wgt id='12063'>0.20559E+02</wgt>
<wgt id='13000'>0.21830E+02</wgt>
<wgt id='13001'>0.21812E+02</wgt>
<wgt id='13002'>0.21844E+02</wgt>
<wgt id='13003'>0.21843E+02</wgt>
<wgt id='13004'>0.21813E+02</wgt>
<wgt id='13005'>0.21859E+02</wgt>
<wgt id='13006'>0.21797E+02</wgt>
<wgt id='13007'>0.21923E+02</wgt>
<wgt id='13008'>0.21735E+02</wgt>
<wgt id='13009'>0.21744E+02</wgt>
<wgt id='13010'>0.21913E+02</wgt>
<wgt id='13011'>0.21910E+02</wgt>
<wgt id='13012'>0.21748E+02</wgt>
<wgt id='13013'>0.21805E+02</wgt>
<wgt id='13014'>0.21851E+02</wgt>
<wgt id='13015'>0.21878E+02</wgt>
<wgt id='13016'>0.21770E+02</wgt>
<wgt id='13017'>0.21795E+02</wgt>
<wgt id='13018'>0.21861E+02</wgt>
<wgt id='13019'>0.21904E+02</wgt>
<wgt id='13020'>0.21755E+02</wgt>
<wgt id='13021'>0.22057E+02</wgt>
<wgt id='13022'>0.21594E+02</wgt>
<wgt id='13023'>0.21571E+02</wgt>
<wgt id='13024'>0.22085E+02</wgt>
<wgt id='13025'>0.21457E+02</wgt>
<wgt id='13026'>0.22164E+02</wgt>
<wgt id='13027'>0.21681E+02</wgt>
<wgt id='13028'>0.22000E+02</wgt>
<wgt id='13050'>0.21831E+02</wgt>
<wgt id='13051'>0.21860E+02</wgt>
<wgt id='13052'>0.21660E+02</wgt>
<wgt id='13053'>0.21848E+02</wgt>
<wgt id='13054'>0.21820E+02</wgt>
<wgt id='13055'>0.21096E+02</wgt>
<wgt id='13056'>0.22118E+02</wgt>
<wgt id='13057'>0.21830E+02</wgt>
<wgt id='13058'>0.21869E+02</wgt>
<wgt id='13059'>0.21960E+02</wgt>
<wgt id='13060'>0.20940E+02</wgt>
<wgt id='13061'>0.21890E+02</wgt>
<wgt id='13062'>0.21816E+02</wgt>
<wgt id='13063'>0.22216E+02</wgt>
<wgt id='14000'>0.23432E+02</wgt>
<wgt id='14001'>0.23429E+02</wgt>
<wgt id='14002'>0.23426E+02</wgt>
<wgt id='14003'>0.23423E+02</wgt>
<wgt id='14004'>0.23419E+02</wgt>
<wgt id='14005'>0.23416E+02</wgt>
<wgt id='14006'>0.23413E+02</wgt>
<wgt id='14007'>0.23410E+02</wgt>
<wgt id='14008'>0.23407E+02</wgt>
<wgt id='14009'>0.23403E+02</wgt>
<wgt id='14010'>0.23400E+02</wgt>
<wgt id='14011'>0.23397E+02</wgt>
<wgt id='14012'>0.23394E+02</wgt>
<wgt id='14013'>0.23391E+02</wgt>
<wgt id='14014'>0.23387E+02</wgt>
<wgt id='14015'>0.23384E+02</wgt>
<wgt id='14016'>0.23381E+02</wgt>
<wgt id='14017'>0.23378E+02</wgt>
<wgt id='14018'>0.23375E+02</wgt>
<wgt id='14019'>0.23371E+02</wgt>
<wgt id='14020'>0.23368E+02</wgt>
<wgt id='14021'>0.23365E+02</wgt>
<wgt id='14022'>0.23362E+02</wgt>
<wgt id='14023'>0.23359E+02</wgt>
<wgt id='14024'>0.23355E+02</wgt>
<wgt id='14025'>0.23352E+02</wgt>
<wgt id='14026'>0.23349E+02</wgt>
<wgt id='14027'>0.23346E+02</wgt>
<wgt id='14028'>0.23343E+02</wgt>
<wgt id='14029'>0.23339E+02</wgt>
<wgt id='14030'>0.23336E+02</wgt>
<wgt id='15000'>0.21987E+02</wgt>
<wgt id='15001'>0.22067E+02</wgt>
<wgt id='15002'>0.21919E+02</wgt>
<wgt id='15003'>0.22083E+02</wgt>
<wgt id='15004'>0.22082E+02</wgt>
<wgt id='15005'>0.22052E+02</wgt>
<wgt id='15006'>0.22107E+02</wgt>
<wgt id='15007'>0.21998E+02</wgt>
<wgt id='15008'>0.21977E+02</wgt>
<wgt id='15009'>0.22036E+02</wgt>
<wgt id='15010'>0.22027E+02</wgt>
<wgt id='15011'>0.22023E+02</wgt>
<wgt id='15012'>0.22039E+02</wgt>
<wgt id='15013'>0.22192E+02</wgt>
<wgt id='15014'>0.21961E+02</wgt>
<wgt id='15015'>0.21775E+02</wgt>
<wgt id='15016'>0.21949E+02</wgt>
<wgt id='15017'>0.21951E+02</wgt>
<wgt id='15018'>0.22127E+02</wgt>
<wgt id='15019'>0.22093E+02</wgt>
<wgt id='15020'>0.22201E+02</wgt>
<wgt id='15021'>0.21729E+02</wgt>
<wgt id='15022'>0.22020E+02</wgt>
<wgt id='15023'>0.21819E+02</wgt>
<wgt id='15024'>0.21882E+02</wgt>
<wgt id='15025'>0.22090E+02</wgt>
<wgt id='15026'>0.21961E+02</wgt>
<wgt id='15027'>0.21941E+02</wgt>
<wgt id='15028'>0.22016E+02</wgt>
<wgt id='15029'>0.22019E+02</wgt>
<wgt id='15030'>0.21956E+02</wgt>
<wgt id='15031'>0.21954E+02</wgt>
<wgt id='15032'>0.22014E+02</wgt>
<wgt id='15033'>0.22014E+02</wgt>
<wgt id='15034'>0.22011E+02</wgt>
<wgt id='15035'>0.22031E+02</wgt>
<wgt id='15036'>0.21999E+02</wgt>
<wgt id='15037'>0.22000E+02</wgt>
<wgt id='15038'>0.22000E+02</wgt>
<wgt id='15039'>0.21980E+02</wgt>
<wgt id='15040'>0.21960E+02</wgt>
<wgt id='15041'>0.21980E+02</wgt>
<wgt id='15042'>0.21987E+02</wgt>
<wgt id='15043'>0.21947E+02</wgt>
<wgt id='15044'>0.22002E+02</wgt>
<wgt id='15045'>0.21982E+02</wgt>
<wgt id='15046'>0.21951E+02</wgt>
<wgt id='15047'>0.21992E+02</wgt>
<wgt id='15048'>0.21996E+02</wgt>
<wgt id='15049'>0.21976E+02</wgt>
<wgt id='15050'>0.21988E+02</wgt>
<wgt id='15051'>0.22002E+02</wgt>
<wgt id='15052'>0.22006E+02</wgt>
<wgt id='15053'>0.21996E+02</wgt>
<wgt id='15054'>0.21978E+02</wgt>
<wgt id='15055'>0.21980E+02</wgt>
<wgt id='15056'>0.22001E+02</wgt>
<wgt id='15057'>0.21987E+02</wgt>
<wgt id='15058'>0.21962E+02</wgt>
<wgt id='15059'>0.21978E+02</wgt>
<wgt id='15060'>0.21987E+02</wgt>
<wgt id='15061'>0.21984E+02</wgt>
<wgt id='15062'>0.21995E+02</wgt>
<wgt id='15063'>0.21991E+02</wgt>
<wgt id='15064'>0.21993E+02</wgt>
<wgt id='15065'>0.21979E+02</wgt>
<wgt id='15066'>0.21980E+02</wgt>
<wgt id='15067'>0.21986E+02</wgt>
<wgt id='15068'>0.21990E+02</wgt>
<wgt id='15069'>0.22008E+02</wgt>
<wgt id='15070'>0.21984E+02</wgt>
<wgt id='15071'>0.21997E+02</wgt>
<wgt id='15072'>0.22002E+02</wgt>
<wgt id='15073'>0.21984E+02</wgt>
<wgt id='15074'>0.21994E+02</wgt>
<wgt id='15075'>0.21987E+02</wgt>
<wgt id='15076'>0.21987E+02</wgt>
<wgt id='15077'>0.21994E+02</wgt>
<wgt id='15078'>0.21995E+02</wgt>
<wgt id='15079'>0.21981E+02</wgt>
<wgt id='15080'>0.22005E+02</wgt>
<wgt id='15081'>0.21988E+02</wgt>
<wgt id='15082'>0.21991E+02</wgt>
<wgt id='15083'>0.21982E+02</wgt>
<wgt id='15084'>0.21974E+02</wgt>
<wgt id='15085'>0.21972E+02</wgt>
<wgt id='15086'>0.21993E+02</wgt>
<wgt id='15087'>0.21965E+02</wgt>
<wgt id='15088'>0.21976E+02</wgt>
<wgt id='15089'>0.21979E+02</wgt>
<wgt id='15090'>0.21991E+02</wgt>
<wgt id='15091'>0.21983E+02</wgt>
<wgt id='15092'>0.21984E+02</wgt>
<wgt id='15093'>0.21982E+02</wgt>
<wgt id='15094'>0.21982E+02</wgt>
<wgt id='15095'>0.21989E+02</wgt>
<wgt id='15096'>0.21981E+02</wgt>
<wgt id='15097'>0.21989E+02</wgt>
<wgt id='15098'>0.21986E+02</wgt>
<wgt id='15099'>0.21980E+02</wgt>
<wgt id='15100'>0.21988E+02</wgt>
<wgt id='15101'>0.21987E+02</wgt>
<wgt id='15102'>0.21985E+02</wgt>
<wgt id='15103'>0.21987E+02</wgt>
<wgt id='15104'>0.21987E+02</wgt>
<wgt id='15105'>0.21988E+02</wgt>
<wgt id='15106'>0.21987E+02</wgt>
<wgt id='15107'>0.21986E+02</wgt>
<wgt id='1500'>0.23391E+02</wgt>
<wgt id='1501'>0.22357E+02</wgt>
<wgt id='1502'>0.23673E+02</wgt>
<wgt id='1503'>0.23830E+02</wgt>
<wgt id='1504'>0.22348E+02</wgt>
<wgt id='1505'>0.22084E+02</wgt>
<wgt id='1506'>0.23144E+02</wgt>
<wgt id='1507'>0.23454E+02</wgt>
<wgt id='1508'>0.23721E+02</wgt>
<wgt id='1509'>0.23283E+02</wgt>
<wgt id='1510'>0.24014E+02</wgt>
<wgt id='1511'>0.23437E+02</wgt>
<wgt id='1512'>0.23185E+02</wgt>
<wgt id='1513'>0.23579E+02</wgt>
<wgt id='1514'>0.24453E+02</wgt>
<wgt id='1515'>0.23517E+02</wgt>
<wgt id='1516'>0.23656E+02</wgt>
<wgt id='1517'>0.24238E+02</wgt>
<wgt id='1518'>0.23715E+02</wgt>
<wgt id='1519'>0.23085E+02</wgt>
<wgt id='1520'>0.23368E+02</wgt>
<wgt id='1521'>0.22800E+02</wgt>
<wgt id='1522'>0.23354E+02</wgt>
<wgt id='1523'>0.23682E+02</wgt>
<wgt id='1524'>0.22903E+02</wgt>
<wgt id='1525'>0.23354E+02</wgt>
<wgt id='1526'>0.22572E+02</wgt>
<wgt id='1527'>0.24251E+02</wgt>
<wgt id='1528'>0.23765E+02</wgt>
<wgt id='1529'>0.23635E+02</wgt>
<wgt id='1530'>0.23065E+02</wgt>
<wgt id='1531'>0.23045E+02</wgt>
<wgt id='1532'>0.23356E+02</wgt>
<wgt id='1533'>0.23214E+02</wgt>
<wgt id='1534'>0.22596E+02</wgt>
<wgt id='1535'>0.24497E+02</wgt>
<wgt id='1536'>0.23492E+02</wgt>
<wgt id='1537'>0.23678E+02</wgt>
<wgt id='1538'>0.23538E+02</wgt>
<wgt id='1539'>0.22634E+02</wgt>
<wgt id='1540'>0.23240E+02</wgt>
<wgt id='1541'>0.23048E+02</wgt>
<wgt id='1542'>0.22780E+02</wgt>
<wgt id='1543'>0.22846E+02</wgt>
<wgt id='1544'>0.23277E+02</wgt>
<wgt id='1545'>0.24078E+02</wgt>
<wgt id='1546'>0.23093E+02</wgt>
<wgt id='1547'>0.23475E+02</wgt>
<wgt id='1548'>0.23396E+02</wgt>
<wgt id='1549'>0.23914E+02</wgt>
<wgt id='1550'>0.23515E+02</wgt>
<wgt id='1551'>0.23262E+02</wgt>
<wgt id='1552'>0.23496E+02</wgt>
<wgt id='1553'>0.23074E+02</wgt>
<wgt id='1554'>0.23136E+02</wgt>
<wgt id='1555'>0.23428E+02</wgt>
<wgt id='1556'>0.23854E+02</wgt>
<wgt id='1557'>0.23392E+02</wgt>
<wgt id='1558'>0.23543E+02</wgt>
<wgt id='1559'>0.23556E+02</wgt>
<wgt id='1560'>0.23385E+02</wgt>
<wgt id='1561'>0.23574E+02</wgt>
<wgt id='1562'>0.23608E+02</wgt>
<wgt id='1563'>0.23113E+02</wgt>
<wgt id='1564'>0.24066E+02</wgt>
<wgt id='1565'>0.23173E+02</wgt>
<wgt id='1566'>0.23445E+02</wgt>
<wgt id='1567'>0.24022E+02</wgt>
<wgt id='1568'>0.23527E+02</wgt>
<wgt id='1569'>0.23201E+02</wgt>
<wgt id='1570'>0.23442E+02</wgt>
<wgt id='1571'>0.23214E+02</wgt>
<wgt id='1572'>0.23097E+02</wgt>
<wgt id='1573'>0.23051E+02</wgt>
<wgt id='1574'>0.23167E+02</wgt>
<wgt id='1575'>0.23634E+02</wgt>
<wgt id='1576'>0.22791E+02</wgt>
<wgt id='1577'>0.22860E+02</wgt>
<wgt id='1578'>0.23033E+02</wgt>
<wgt id='1579'>0.23312E+02</wgt>
<wgt id='1580'>0.23228E+02</wgt>
<wgt id='1581'>0.23490E+02</wgt>
<wgt id='1582'>0.23303E+02</wgt>
<wgt id='1583'>0.23021E+02</wgt>
<wgt id='1584'>0.23764E+02</wgt>
<wgt id='1585'>0.23675E+02</wgt>
<wgt id='1586'>0.23608E+02</wgt>
<wgt id='1587'>0.24039E+02</wgt>
<wgt id='1588'>0.23604E+02</wgt>
<wgt id='1589'>0.23084E+02</wgt>
<wgt id='1590'>0.23178E+02</wgt>
<wgt id='1591'>0.23210E+02</wgt>
<wgt id='1592'>0.23143E+02</wgt>
<wgt id='1593'>0.23708E+02</wgt>
<wgt id='1594'>0.23578E+02</wgt>
<wgt id='1595'>0.24404E+02</wgt>
<wgt id='1596'>0.23222E+02</wgt>
<wgt id='1597'>0.23354E+02</wgt>
<wgt id='1598'>0.23350E+02</wgt>
<wgt id='1599'>0.23495E+02</wgt>
<wgt id='1600'>0.24092E+02</wgt>
<wgt id='1601'>0.22981E+02</wgt>
<wgt id='1602'>0.23718E+02</wgt>
<wgt id='1700'>0.22021E+02</wgt>
<wgt id='1800'>0.24831E+02</wgt>
<wgt id='1850'>0.30381E+02</wgt>
<wgt id='1900'>0.26923E+02</wgt>
<wgt id='1950'>0.30097E+02</wgt>
</rwgt>
</event>
<event>
      4   9999  2.16956E+01  4.55258E+01 -1.00000E+00  1.39360E-01
      21    -1     0     0   502   512  0.000000000E+00  0.000000000E+00  2.003987956E+02  2.003987956E+02  0.000000000E+00  0.00000E+00  9.000E+00
      21    -1     0     0   501   502  0.000000000E+00  0.000000000E+00 -5.185190352E+01  5.185190352E+01  0.000000000E+00  0.00000E+00  9.000E+00
      25     1     1     2     0     0  1.998040181E+01  4.090701392E+01  4.721704486E+01  1.411636243E+02  1.250004771E+02  0.00000E+00  9.000E+00
      21     1     1     2   501   512 -1.998040181E+01 -4.090701392E+01  1.013298472E+02  1.110870748E+02  1.348699152E-06  0.00000E+00  9.000E+00
#rwgt            1           1   18.413485216027802                1        4330           0
<rwgt>
<wgt id='1001'>0.21696E+02</wgt>
<wgt id='1002'>0.23726E+02</wgt>
<wgt id='1003'>0.19512E+02</wgt>
<wgt id='1004'>0.18549E+02</wgt>
<wgt id='1005'>0.20184E+02</wgt>
<wgt id='1006'>0.16760E+02</wgt>
<wgt id='1007'>0.25702E+02</wgt>
<wgt id='1008'>0.28292E+02</wgt>
<wgt id='1009'>0.22976E+02</wgt>
<wgt id='2000'>0.21696E+02</wgt>
<wgt id='2001'>0.21672E+02</wgt>
<wgt id='2002'>0.21791E+02</wgt>
<wgt id='2003'>0.21784E+02</wgt>
<wgt id='2004'>0.21721E+02</wgt>
<wgt id='2005'>0.21638E+02</wgt>
<wgt id='2006'>0.21630E+02</wgt>
<wgt id='2007'>0.21601E+02</wgt>
<wgt id='2008'>0.21654E+02</wgt>
<wgt id='2009'>0.21720E+02</wgt>
<wgt id='2010'>0.21679E+02</wgt>
<wgt id='2011'>0.21805E+02</wgt>
<wgt id='2012'>0.21822E+02</wgt>
<wgt id='2013'>0.21903E+02</wgt>
<wgt id='2014'>0.21778E+02</wgt>
<wgt id='2015'>0.21742E+02</wgt>
<wgt id='2016'>0.21639E+02</wgt>
<wgt id='2017'>0.21694E+02</wgt>
<wgt id='2018'>0.21782E+02</wgt>
<wgt id='2019'>0.21685E+02</wgt>
<wgt id='2020'>0.21752E+02</wgt>
<wgt id='2021'>0.21666E+02</wgt>
<wgt id='2022'>0.21703E+02</wgt>
<wgt id='2023'>0.21711E+02</wgt>
<wgt id='2024'>0.21709E+02</wgt>
<wgt id='2025'>0.21693E+02</wgt>
<wgt id='2026'>0.21692E+02</wgt>
<wgt id='2027'>0.21688E+02</wgt>
<wgt id='2028'>0.21692E+02</wgt>
<wgt id='2029'>0.21715E+02</wgt>
<wgt id='2030'>0.21701E+02</wgt>
<wgt id='2031'>0.21703E+02</wgt>
<wgt id='2032'>0.21694E+02</wgt>
<wgt id='2033'>0.21699E+02</wgt>
<wgt id='2034'>0.21707E+02</wgt>
<wgt id='2035'>0.21692E+02</wgt>
<wgt id='2036'>0.21699E+02</wgt>
<wgt id='2037'>0.21703E+02</wgt>
<wgt id='2038'>0.21694E+02</wgt>
<wgt id='2039'>0.21687E+02</wgt>
<wgt id='2040'>0.21698E+02</wgt>
<wgt id='2041'>0.21697E+02</wgt>
<wgt id='2042'>0.21690E+02</wgt>
<wgt id='2043'>0.21697E+02</wgt>
<wgt id='2044'>0.21702E+02</wgt>
<wgt id='2045'>0.21695E+02</wgt>
<wgt id='2046'>0.21702E+02</wgt>
<wgt id='2047'>0.21703E+02</wgt>
<wgt id='2048'>0.21694E+02</wgt>
<wgt id='2049'>0.21695E+02</wgt>
<wgt id='2050'>0.21701E+02</wgt>
<wgt id='2051'>0.21703E+02</wgt>
<wgt id='2052'>0.21694E+02</wgt>
<wgt id='2053'>0.21696E+02</wgt>
<wgt id='2054'>0.21695E+02</wgt>
<wgt id='2055'>0.21696E+02</wgt>
<wgt id='2056'>0.21695E+02</wgt>
<wgt id='2057'>0.21697E+02</wgt>
<wgt id='2058'>0.21700E+02</wgt>
<wgt id='2059'>0.21693E+02</wgt>
<wgt id='2060'>0.21698E+02</wgt>
<wgt id='2061'>0.21691E+02</wgt>
<wgt id='2062'>0.21694E+02</wgt>
<wgt id='2063'>0.21697E+02</wgt>
<wgt id='2064'>0.21690E+02</wgt>
<wgt id='2065'>0.21696E+02</wgt>
<wgt id='2066'>0.21691E+02</wgt>
<wgt id='2067'>0.21697E+02</wgt>
<wgt id='2068'>0.21697E+02</wgt>
<wgt id='2069'>0.21694E+02</wgt>
<wgt id='2070'>0.21695E+02</wgt>
<wgt id='2071'>0.21689E+02</wgt>
<wgt id='2072'>0.21697E+02</wgt>
<wgt id='2073'>0.21695E+02</wgt>
<wgt id='2074'>0.21692E+02</wgt>
<wgt id='2075'>0.21696E+02</wgt>
<wgt id='2076'>0.21693E+02</wgt>
<wgt id='2077'>0.21694E+02</wgt>
<wgt id='2078'>0.21699E+02</wgt>
<wgt id='2079'>0.21696E+02</wgt>
<wgt id='2080'>0.21694E+02</wgt>
<wgt id='2081'>0.21697E+02</wgt>
<wgt id='2082'>0.21695E+02</wgt>
<wgt id='2083'>0.21694E+02</wgt>
<wgt id='2084'>0.21697E+02</wgt>
<wgt id='2085'>0.21697E+02</wgt>
<wgt id='2086'>0.21692E+02</wgt>
<wgt id='2087'>0.21694E+02</wgt>
<wgt id='2088'>0.21697E+02</wgt>
<wgt id='2089'>0.21694E+02</wgt>
<wgt id='2090'>0.21696E+02</wgt>
<wgt id='2091'>0.21694E+02</wgt>
<wgt id='2092'>0.21696E+02</wgt>
<wgt id='2093'>0.21695E+02</wgt>
<wgt id='2094'>0.21697E+02</wgt>
<wgt id='2095'>0.21696E+02</wgt>
<wgt id='2096'>0.21695E+02</wgt>
<wgt id='2097'>0.21696E+02</wgt>
<wgt id='2098'>0.21695E+02</wgt>
<wgt id='2099'>0.21696E+02</wgt>
<wgt id='2100'>0.21696E+02</wgt>
<wgt id='2101'>0.21161E+02</wgt>
<wgt id='2102'>0.22153E+02</wgt>
<wgt id='2104'>0.19259E+02</wgt>
<wgt id='2105'>0.19668E+02</wgt>
<wgt id='2106'>0.20160E+02</wgt>
<wgt id='2107'>0.20711E+02</wgt>
<wgt id='2108'>0.21493E+02</wgt>
<wgt id='2109'>0.21988E+02</wgt>
<wgt id='2110'>0.22618E+02</wgt>
<wgt id='2111'>0.23112E+02</wgt>
<wgt id='3000'>0.22611E+02</wgt>
<wgt id='3001'>0.22695E+02</wgt>
<wgt id='3002'>0.22515E+02</wgt>
<wgt id='3003'>0.22701E+02</wgt>
<wgt id='3004'>0.22662E+02</wgt>
<wgt id='3005'>0.22725E+02</wgt>
<wgt id='3006'>0.22646E+02</wgt>
<wgt id='3007'>0.22664E+02</wgt>
<wgt id='3008'>0.22539E+02</wgt>
<wgt id='3009'>0.22586E+02</wgt>
<wgt id='3010'>0.22520E+02</wgt>
<wgt id='3011'>0.22666E+02</wgt>
<wgt id='3012'>0.22784E+02</wgt>
<wgt id='3013'>0.22416E+02</wgt>
<wgt id='3014'>0.22707E+02</wgt>
<wgt id='3015'>0.22703E+02</wgt>
<wgt id='3016'>0.22620E+02</wgt>
<wgt id='3017'>0.22715E+02</wgt>
<wgt id='3018'>0.22635E+02</wgt>
<wgt id='3019'>0.22534E+02</wgt>
<wgt id='3020'>0.22605E+02</wgt>
<wgt id='3021'>0.22563E+02</wgt>
<wgt id='3022'>0.22607E+02</wgt>
<wgt id='3023'>0.22594E+02</wgt>
<wgt id='3024'>0.22621E+02</wgt>
<wgt id='3025'>0.22616E+02</wgt>
<wgt id='3026'>0.22608E+02</wgt>
<wgt id='3027'>0.22620E+02</wgt>
<wgt id='3028'>0.22607E+02</wgt>
<wgt id='3029'>0.22614E+02</wgt>
<wgt id='3030'>0.22630E+02</wgt>
<wgt id='3031'>0.22618E+02</wgt>
<wgt id='3032'>0.22608E+02</wgt>
<wgt id='3033'>0.22617E+02</wgt>
<wgt id='3034'>0.22611E+02</wgt>
<wgt id='3035'>0.22629E+02</wgt>
<wgt id='3036'>0.22617E+02</wgt>
<wgt id='3037'>0.22611E+02</wgt>
<wgt id='3038'>0.22612E+02</wgt>
<wgt id='3039'>0.22607E+02</wgt>
<wgt id='3040'>0.22607E+02</wgt>
<wgt id='3041'>0.22615E+02</wgt>
<wgt id='3042'>0.22605E+02</wgt>
<wgt id='3043'>0.22606E+02</wgt>
<wgt id='3044'>0.22612E+02</wgt>
<wgt id='3045'>0.22618E+02</wgt>
<wgt id='3046'>0.22617E+02</wgt>
<wgt id='3047'>0.22609E+02</wgt>
<wgt id='3048'>0.22614E+02</wgt>
<wgt id='3049'>0.22609E+02</wgt>
<wgt id='3050'>0.22609E+02</wgt>
<wgt id='3051'>0.22620E+02</wgt>
<wgt id='3052'>0.22607E+02</wgt>
<wgt id='3053'>0.22608E+02</wgt>
<wgt id='3054'>0.22608E+02</wgt>
<wgt id='3055'>0.22605E+02</wgt>
<wgt id='3056'>0.22613E+02</wgt>
<wgt id='3057'>0.22606E+02</wgt>
<wgt id='3058'>0.22606E+02</wgt>
<wgt id='3059'>0.22610E+02</wgt>
<wgt id='3060'>0.22612E+02</wgt>
<wgt id='3061'>0.22612E+02</wgt>
<wgt id='3062'>0.22614E+02</wgt>
<wgt id='3063'>0.22617E+02</wgt>
<wgt id='3064'>0.22609E+02</wgt>
<wgt id='3065'>0.22612E+02</wgt>
<wgt id='3066'>0.22613E+02</wgt>
<wgt id='3067'>0.22606E+02</wgt>
<wgt id='3068'>0.22611E+02</wgt>
<wgt id='3069'>0.22608E+02</wgt>
<wgt id='3070'>0.22610E+02</wgt>
<wgt id='3071'>0.22610E+02</wgt>
<wgt id='3072'>0.22614E+02</wgt>
<wgt id='3073'>0.22608E+02</wgt>
<wgt id='3074'>0.22615E+02</wgt>
<wgt id='3075'>0.22612E+02</wgt>
<wgt id='3076'>0.22609E+02</wgt>
<wgt id='3077'>0.22610E+02</wgt>
<wgt id='3078'>0.22613E+02</wgt>
<wgt id='3079'>0.22610E+02</wgt>
<wgt id='3080'>0.22610E+02</wgt>
<wgt id='3081'>0.22610E+02</wgt>
<wgt id='3082'>0.22610E+02</wgt>
<wgt id='3083'>0.22610E+02</wgt>
<wgt id='3084'>0.22610E+02</wgt>
<wgt id='3085'>0.22610E+02</wgt>
<wgt id='3086'>0.22611E+02</wgt>
<wgt id='3087'>0.22610E+02</wgt>
<wgt id='3088'>0.22611E+02</wgt>
<wgt id='3089'>0.22611E+02</wgt>
<wgt id='3090'>0.22612E+02</wgt>
<wgt id='3091'>0.22611E+02</wgt>
<wgt id='3092'>0.22611E+02</wgt>
<wgt id='3093'>0.22611E+02</wgt>
<wgt id='3094'>0.22613E+02</wgt>
<wgt id='3095'>0.22611E+02</wgt>
<wgt id='3096'>0.22609E+02</wgt>
<wgt id='3097'>0.22609E+02</wgt>
<wgt id='3098'>0.22610E+02</wgt>
<wgt id='3099'>0.22611E+02</wgt>
<wgt id='3100'>0.22611E+02</wgt>
<wgt id='3101'>0.22083E+02</wgt>
<wgt id='3102'>0.23221E+02</wgt>
<wgt id='5000'>0.21099E+02</wgt>
<wgt id='5001'>0.21008E+02</wgt>
<wgt id='5002'>0.21064E+02</wgt>
<wgt id='5003'>0.20950E+02</wgt>
<wgt id='5004'>0.21152E+02</wgt>
<wgt id='5005'>0.20601E+02</wgt>
<wgt id='5006'>0.21458E+02</wgt>
<wgt id='5007'>0.21229E+02</wgt>
<wgt id='5008'>0.20814E+02</wgt>
<wgt id='5009'>0.21369E+02</wgt>
<wgt id='5010'>0.20952E+02</wgt>
<wgt id='5011'>0.21056E+02</wgt>
<wgt id='5012'>0.21086E+02</wgt>
<wgt id='5013'>0.20651E+02</wgt>
<wgt id='5014'>0.21095E+02</wgt>
<wgt id='5015'>0.21263E+02</wgt>
<wgt id='5016'>0.20594E+02</wgt>
<wgt id='5017'>0.21155E+02</wgt>
<wgt id='5018'>0.21038E+02</wgt>
<wgt id='5019'>0.21013E+02</wgt>
<wgt id='5020'>0.21164E+02</wgt>
<wgt id='5021'>0.21174E+02</wgt>
<wgt id='5022'>0.21050E+02</wgt>
<wgt id='5023'>0.21053E+02</wgt>
<wgt id='5024'>0.21143E+02</wgt>
<wgt id='5025'>0.21070E+02</wgt>
<wgt id='5026'>0.21122E+02</wgt>
<wgt id='5027'>0.21325E+02</wgt>
<wgt id='5028'>0.20718E+02</wgt>
<wgt id='5029'>0.20692E+02</wgt>
<wgt id='5030'>0.21343E+02</wgt>
<wgt id='5031'>0.20854E+02</wgt>
<wgt id='5032'>0.21452E+02</wgt>
<wgt id='5033'>0.20930E+02</wgt>
<wgt id='5034'>0.21243E+02</wgt>
<wgt id='5035'>0.20764E+02</wgt>
<wgt id='5036'>0.21368E+02</wgt>
<wgt id='5037'>0.21088E+02</wgt>
<wgt id='5038'>0.21099E+02</wgt>
<wgt id='5039'>0.21454E+02</wgt>
<wgt id='5040'>0.20917E+02</wgt>
<wgt id='5041'>0.20844E+02</wgt>
<wgt id='5042'>0.21145E+02</wgt>
<wgt id='5043'>0.21332E+02</wgt>
<wgt id='5044'>0.20513E+02</wgt>
<wgt id='5045'>0.21757E+02</wgt>
<wgt id='5046'>0.20901E+02</wgt>
<wgt id='5047'>0.21257E+02</wgt>
<wgt id='5048'>0.21187E+02</wgt>
<wgt id='5049'>0.21119E+02</wgt>
<wgt id='5050'>0.21137E+02</wgt>
<wgt id='5051'>0.21165E+02</wgt>
<wgt id='5052'>0.21079E+02</wgt>
<wgt id='5053'>0.20939E+02</wgt>
<wgt id='5054'>0.21643E+02</wgt>
<wgt id='5055'>0.20963E+02</wgt>
<wgt id='5056'>0.21214E+02</wgt>
<wgt id='5060'>0.20641E+02</wgt>
<wgt id='5070'>0.21482E+02</wgt>
<wgt id='4000'>0.22246E+02</wgt>
<wgt id='4001'>0.22271E+02</wgt>
<wgt id='4002'>0.22320E+02</wgt>
<wgt id='4003'>0.22813E+02</wgt>
<wgt id='4004'>0.21988E+02</wgt>
<wgt id='4005'>0.22332E+02</wgt>
<wgt id='4006'>0.22177E+02</wgt>
<wgt id='4007'>0.22520E+02</wgt>
<wgt id='4008'>0.22121E+02</wgt>
<wgt id='4009'>0.21750E+02</wgt>
<wgt id='4010'>0.22639E+02</wgt>
<wgt id='4011'>0.22596E+02</wgt>
<wgt id='4012'>0.22046E+02</wgt>
<wgt id='4013'>0.21387E+02</wgt>
<wgt id='4014'>0.22741E+02</wgt>
<wgt id='4015'>0.22434E+02</wgt>
<wgt id='4016'>0.22121E+02</wgt>
<wgt id='4017'>0.22041E+02</wgt>
<wgt id='4018'>0.22490E+02</wgt>
<wgt id='4019'>0.22539E+02</wgt>
<wgt id='4020'>0.21916E+02</wgt>
<wgt id='4021'>0.22304E+02</wgt>
<wgt id='4022'>0.22119E+02</wgt>
<wgt id='4023'>0.22126E+02</wgt>
<wgt id='4024'>0.22352E+02</wgt>
<wgt id='4025'>0.21909E+02</wgt>
<wgt id='4026'>0.22553E+02</wgt>
<wgt id='4027'>0.22166E+02</wgt>
<wgt id='4028'>0.22353E+02</wgt>
<wgt id='4029'>0.22074E+02</wgt>
<wgt id='4030'>0.22305E+02</wgt>
<wgt id='4031'>0.22280E+02</wgt>
<wgt id='4032'>0.22201E+02</wgt>
<wgt id='4033'>0.22234E+02</wgt>
<wgt id='4034'>0.22266E+02</wgt>
<wgt id='4035'>0.22592E+02</wgt>
<wgt id='4036'>0.21912E+02</wgt>
<wgt id='4037'>0.22441E+02</wgt>
<wgt id='4038'>0.21919E+02</wgt>
<wgt id='4039'>0.22236E+02</wgt>
<wgt id='4040'>0.22209E+02</wgt>
<wgt id='4041'>0.22442E+02</wgt>
<wgt id='4042'>0.22063E+02</wgt>
<wgt id='4043'>0.22455E+02</wgt>
<wgt id='4044'>0.22004E+02</wgt>
<wgt id='4045'>0.21984E+02</wgt>
<wgt id='4046'>0.22128E+02</wgt>
<wgt id='4047'>0.21929E+02</wgt>
<wgt id='4048'>0.22512E+02</wgt>
<wgt id='4049'>0.22370E+02</wgt>
<wgt id='4050'>0.21771E+02</wgt>
<wgt id='4051'>0.22197E+02</wgt>
<wgt id='4052'>0.22183E+02</wgt>
<wgt id='4053'>0.21661E+02</wgt>
<wgt id='4054'>0.22412E+02</wgt>
<wgt id='4055'>0.22061E+02</wgt>
<wgt id='4056'>0.22413E+02</wgt>
<wgt id='4060'>0.21678E+02</wgt>
<wgt id='4070'>0.22759E+02</wgt>
<wgt id='4080'>0.21776E+02</wgt>
<wgt id='6000'>0.22651E+02</wgt>
<wgt id='6001'>0.22657E+02</wgt>
<wgt id='6002'>0.22645E+02</wgt>
<wgt id='6003'>0.22661E+02</wgt>
<wgt id='6004'>0.22645E+02</wgt>
<wgt id='6005'>0.22716E+02</wgt>
<wgt id='6006'>0.22591E+02</wgt>
<wgt id='6007'>0.22552E+02</wgt>
<wgt id='6008'>0.22763E+02</wgt>
<wgt id='6009'>0.22716E+02</wgt>
<wgt id='6010'>0.22588E+02</wgt>
<wgt id='6011'>0.22698E+02</wgt>
<wgt id='6012'>0.22549E+02</wgt>
<wgt id='6013'>0.22628E+02</wgt>
<wgt id='6014'>0.22692E+02</wgt>
<wgt id='6015'>0.22579E+02</wgt>
<wgt id='6016'>0.22693E+02</wgt>
<wgt id='6017'>0.22529E+02</wgt>
<wgt id='6018'>0.22796E+02</wgt>
<wgt id='6019'>0.22691E+02</wgt>
<wgt id='6020'>0.22617E+02</wgt>
<wgt id='6021'>0.22601E+02</wgt>
<wgt id='6022'>0.22719E+02</wgt>
<wgt id='6023'>0.22494E+02</wgt>
<wgt id='6024'>0.22760E+02</wgt>
<wgt id='6025'>0.22368E+02</wgt>
<wgt id='6026'>0.22907E+02</wgt>
<wgt id='6027'>0.22709E+02</wgt>
<wgt id='6028'>0.22652E+02</wgt>
<wgt id='6029'>0.22795E+02</wgt>
<wgt id='6030'>0.22484E+02</wgt>
<wgt id='6031'>0.22681E+02</wgt>
<wgt id='6032'>0.22611E+02</wgt>
<wgt id='6033'>0.22694E+02</wgt>
<wgt id='6034'>0.22606E+02</wgt>
<wgt id='6035'>0.22635E+02</wgt>
<wgt id='6036'>0.22730E+02</wgt>
<wgt id='6037'>0.22692E+02</wgt>
<wgt id='6038'>0.22646E+02</wgt>
<wgt id='6039'>0.22633E+02</wgt>
<wgt id='6040'>0.22671E+02</wgt>
<wgt id='6041'>0.22604E+02</wgt>
<wgt id='6042'>0.22708E+02</wgt>
<wgt id='6043'>0.22932E+02</wgt>
<wgt id='6044'>0.22506E+02</wgt>
<wgt id='6045'>0.22633E+02</wgt>
<wgt id='6046'>0.22700E+02</wgt>
<wgt id='6047'>0.22580E+02</wgt>
<wgt id='6048'>0.22534E+02</wgt>
<wgt id='6049'>0.22619E+02</wgt>
<wgt id='6050'>0.22652E+02</wgt>
<wgt id='7000'>0.21256E+02</wgt>
<wgt id='7001'>0.21245E+02</wgt>
<wgt id='7002'>0.21272E+02</wgt>
<wgt id='7003'>0.21323E+02</wgt>
<wgt id='7004'>0.21191E+02</wgt>
<wgt id='7005'>0.21297E+02</wgt>
<wgt id='7006'>0.21240E+02</wgt>
<wgt id='7007'>0.21170E+02</wgt>
<wgt id='7008'>0.21342E+02</wgt>
<wgt id='7009'>0.21289E+02</wgt>
<wgt id='7010'>0.21224E+02</wgt>
<wgt id='7011'>0.21063E+02</wgt>
<wgt id='7012'>0.21341E+02</wgt>
<wgt id='7013'>0.21259E+02</wgt>
<wgt id='7014'>0.21254E+02</wgt>
<wgt id='7015'>0.21199E+02</wgt>
<wgt id='7016'>0.21319E+02</wgt>
<wgt id='7017'>0.21220E+02</wgt>
<wgt id='7018'>0.21275E+02</wgt>
<wgt id='7019'>0.21227E+02</wgt>
<wgt id='7020'>0.21296E+02</wgt>
<wgt id='7021'>0.21250E+02</wgt>
<wgt id='7022'>0.21260E+02</wgt>
<wgt id='7023'>0.21504E+02</wgt>
<wgt id='7024'>0.21018E+02</wgt>
<wgt id='7025'>0.21352E+02</wgt>
<wgt id='7026'>0.21023E+02</wgt>
<wgt id='7027'>0.21349E+02</wgt>
<wgt id='7028'>0.21213E+02</wgt>
<wgt id='7029'>0.21157E+02</wgt>
<wgt id='7030'>0.21523E+02</wgt>
<wgt id='7031'>0.21255E+02</wgt>
<wgt id='7032'>0.21264E+02</wgt>
<wgt id='7033'>0.21226E+02</wgt>
<wgt id='7034'>0.21326E+02</wgt>
<wgt id='7035'>0.21314E+02</wgt>
<wgt id='7036'>0.21240E+02</wgt>
<wgt id='7037'>0.21266E+02</wgt>
<wgt id='7038'>0.21256E+02</wgt>
<wgt id='7039'>0.21239E+02</wgt>
<wgt id='7040'>0.21269E+02</wgt>
<wgt id='7041'>0.21216E+02</wgt>
<wgt id='7042'>0.21279E+02</wgt>
<wgt id='7043'>0.21276E+02</wgt>
<wgt id='7044'>0.21147E+02</wgt>
<wgt id='7045'>0.21085E+02</wgt>
<wgt id='7046'>0.21290E+02</wgt>
<wgt id='7047'>0.21262E+02</wgt>
<wgt id='7048'>0.21244E+02</wgt>
<wgt id='7049'>0.21239E+02</wgt>
<wgt id='7050'>0.21196E+02</wgt>
<wgt id='7060'>0.32278E+02</wgt>
<wgt id='8000'>0.21509E+02</wgt>
<wgt id='8001'>0.21503E+02</wgt>
<wgt id='8002'>0.21515E+02</wgt>
<wgt id='8003'>0.21512E+02</wgt>
<wgt id='8004'>0.21509E+02</wgt>
<wgt id='8005'>0.21459E+02</wgt>
<wgt id='8006'>0.21495E+02</wgt>
<wgt id='8007'>0.21481E+02</wgt>
<wgt id='8008'>0.21547E+02</wgt>
<wgt id='8009'>0.21587E+02</wgt>
<wgt id='8010'>0.21509E+02</wgt>
<wgt id='8011'>0.21498E+02</wgt>
<wgt id='8012'>0.21485E+02</wgt>
<wgt id='8013'>0.21505E+02</wgt>
<wgt id='8014'>0.21496E+02</wgt>
<wgt id='8015'>0.21493E+02</wgt>
<wgt id='8016'>0.21514E+02</wgt>
<wgt id='8017'>0.21510E+02</wgt>
<wgt id='8018'>0.21505E+02</wgt>
<wgt id='8019'>0.21549E+02</wgt>
<wgt id='8020'>0.21434E+02</wgt>
<wgt id='8021'>0.21512E+02</wgt>
<wgt id='8022'>0.21372E+02</wgt>
<wgt id='8023'>0.21537E+02</wgt>
<wgt id='8024'>0.21561E+02</wgt>
<wgt id='8025'>0.21589E+02</wgt>
<wgt id='8026'>0.21555E+02</wgt>
<wgt id='8027'>0.21470E+02</wgt>
<wgt id='8028'>0.21530E+02</wgt>
<wgt id='8029'>0.21361E+02</wgt>
<wgt id='8500'>0.22349E+02</wgt>
<wgt id='8501'>0.22307E+02</wgt>
<wgt id='8502'>0.22577E+02</wgt>
<wgt id='8503'>0.22507E+02</wgt>
<wgt id='8504'>0.22294E+02</wgt>
<wgt id='8505'>0.22237E+02</wgt>
<wgt id='8506'>0.22288E+02</wgt>
<wgt id='8507'>0.22483E+02</wgt>
<wgt id='8508'>0.22687E+02</wgt>
<wgt id='8509'>0.22201E+02</wgt>
<wgt id='8510'>0.22682E+02</wgt>
<wgt id='8511'>0.22364E+02</wgt>
<wgt id='8512'>0.22084E+02</wgt>
<wgt id='8513'>0.22380E+02</wgt>
<wgt id='8514'>0.22261E+02</wgt>
<wgt id='8515'>0.22353E+02</wgt>
<wgt id='8516'>0.22421E+02</wgt>
<wgt id='8517'>0.22318E+02</wgt>
<wgt id='8518'>0.22287E+02</wgt>
<wgt id='8519'>0.22286E+02</wgt>
<wgt id='8520'>0.22368E+02</wgt>
<wgt id='8521'>0.22257E+02</wgt>
<wgt id='8522'>0.22360E+02</wgt>
<wgt id='8523'>0.22313E+02</wgt>
<wgt id='8524'>0.22348E+02</wgt>
<wgt id='8525'>0.22325E+02</wgt>
<wgt id='8526'>0.22314E+02</wgt>
<wgt id='8527'>0.22347E+02</wgt>
<wgt id='8528'>0.22292E+02</wgt>
<wgt id='8529'>0.22335E+02</wgt>
<wgt id='8530'>0.22351E+02</wgt>
<wgt id='8531'>0.22341E+02</wgt>
<wgt id='8532'>0.22353E+02</wgt>
<wgt id='8533'>0.22304E+02</wgt>
<wgt id='8534'>0.22359E+02</wgt>
<wgt id='8535'>0.22399E+02</wgt>
<wgt id='8536'>0.22334E+02</wgt>
<wgt id='8537'>0.22358E+02</wgt>
<wgt id='8538'>0.22327E+02</wgt>
<wgt id='8539'>0.22354E+02</wgt>
<wgt id='8540'>0.22354E+02</wgt>
<wgt id='8541'>0.22360E+02</wgt>
<wgt id='8542'>0.22366E+02</wgt>
<wgt id='8543'>0.22330E+02</wgt>
<wgt id='8544'>0.22373E+02</wgt>
<wgt id='8545'>0.22368E+02</wgt>
<wgt id='8546'>0.22370E+02</wgt>
<wgt id='8547'>0.22330E+02</wgt>
<wgt id='8548'>0.22327E+02</wgt>
<wgt id='8549'>0.22350E+02</wgt>
<wgt id='8550'>0.22353E+02</wgt>
<wgt id='8551'>0.22328E+02</wgt>
<wgt id='8552'>0.22354E+02</wgt>
<wgt id='8553'>0.22340E+02</wgt>
<wgt id='8554'>0.22339E+02</wgt>
<wgt id='8555'>0.22352E+02</wgt>
<wgt id='8556'>0.22348E+02</wgt>
<wgt id='8557'>0.22344E+02</wgt>
<wgt id='8558'>0.22373E+02</wgt>
<wgt id='8559'>0.22338E+02</wgt>
<wgt id='8560'>0.22325E+02</wgt>
<wgt id='8561'>0.22347E+02</wgt>
<wgt id='8562'>0.22333E+02</wgt>
<wgt id='8563'>0.22350E+02</wgt>
<wgt id='8564'>0.22345E+02</wgt>
<wgt id='8565'>0.22348E+02</wgt>
<wgt id='8566'>0.22345E+02</wgt>
<wgt id='8567'>0.22348E+02</wgt>
<wgt id='8568'>0.22357E+02</wgt>
<wgt id='8569'>0.22355E+02</wgt>
<wgt id='8570'>0.22347E+02</wgt>
<wgt id='8571'>0.22340E+02</wgt>
<wgt id='8572'>0.22343E+02</wgt>
<wgt id='8573'>0.22340E+02</wgt>
<wgt id='8574'>0.22353E+02</wgt>
<wgt id='8575'>0.22346E+02</wgt>
<wgt id='8576'>0.22347E+02</wgt>
<wgt id='8577'>0.22348E+02</wgt>
<wgt id='8578'>0.22351E+02</wgt>
<wgt id='8579'>0.22362E+02</wgt>
<wgt id='8580'>0.22349E+02</wgt>
<wgt id='8581'>0.22353E+02</wgt>
<wgt id='8582'>0.22336E+02</wgt>
<wgt id='8583'>0.22358E+02</wgt>
<wgt id='8584'>0.22354E+02</wgt>
<wgt id='8585'>0.22353E+02</wgt>
<wgt id='8586'>0.22359E+02</wgt>
<wgt id='8587'>0.22346E+02</wgt>
<wgt id='8588'>0.22344E+02</wgt>
<wgt id='8589'>0.22350E+02</wgt>
<wgt id='8590'>0.22347E+02</wgt>
<wgt id='8591'>0.22346E+02</wgt>
<wgt id='8592'>0.22348E+02</wgt>
<wgt id='8593'>0.22341E+02</wgt>
<wgt id='8594'>0.22352E+02</wgt>
<wgt id='8595'>0.22351E+02</wgt>
<wgt id='8596'>0.22344E+02</wgt>
<wgt id='8597'>0.22352E+02</wgt>
<wgt id='8598'>0.22354E+02</wgt>
<wgt id='8599'>0.22352E+02</wgt>
<wgt id='8600'>0.22349E+02</wgt>
<wgt id='8601'>0.21938E+02</wgt>
<wgt id='8602'>0.22701E+02</wgt>
<wgt id='9000'>0.21230E+02</wgt>
<wgt id='9001'>0.21270E+02</wgt>
<wgt id='9002'>0.21341E+02</wgt>
<wgt id='9003'>0.21037E+02</wgt>
<wgt id='9004'>0.21189E+02</wgt>
<wgt id='9005'>0.21341E+02</wgt>
<wgt id='9006'>0.21166E+02</wgt>
<wgt id='9007'>0.21230E+02</wgt>
<wgt id='9008'>0.21274E+02</wgt>
<wgt id='9009'>0.21217E+02</wgt>
<wgt id='9010'>0.21197E+02</wgt>
<wgt id='9011'>0.21459E+02</wgt>
<wgt id='9012'>0.20954E+02</wgt>
<wgt id='9013'>0.20944E+02</wgt>
<wgt id='9014'>0.20978E+02</wgt>
<wgt id='9015'>0.21205E+02</wgt>
<wgt id='9016'>0.21308E+02</wgt>
<wgt id='9017'>0.21245E+02</wgt>
<wgt id='9018'>0.21228E+02</wgt>
<wgt id='9019'>0.21209E+02</wgt>
<wgt id='9020'>0.21317E+02</wgt>
<wgt id='9021'>0.21223E+02</wgt>
<wgt id='9022'>0.21255E+02</wgt>
<wgt id='9023'>0.21200E+02</wgt>
<wgt id='9024'>0.21199E+02</wgt>
<wgt id='9025'>0.21260E+02</wgt>
<wgt id='9026'>0.21241E+02</wgt>
<wgt id='9027'>0.21208E+02</wgt>
<wgt id='9028'>0.21246E+02</wgt>
<wgt id='9029'>0.21250E+02</wgt>
<wgt id='9030'>0.21241E+02</wgt>
<wgt id='9031'>0.21225E+02</wgt>
<wgt id='9032'>0.21243E+02</wgt>
<wgt id='9033'>0.21257E+02</wgt>
<wgt id='9034'>0.21215E+02</wgt>
<wgt id='9035'>0.21265E+02</wgt>
<wgt id='9036'>0.21227E+02</wgt>
<wgt id='9037'>0.21250E+02</wgt>
<wgt id='9038'>0.21229E+02</wgt>
<wgt id='9039'>0.21230E+02</wgt>
<wgt id='9040'>0.21204E+02</wgt>
<wgt id='9041'>0.21220E+02</wgt>
<wgt id='9042'>0.21225E+02</wgt>
<wgt id='9043'>0.21213E+02</wgt>
<wgt id='9044'>0.21236E+02</wgt>
<wgt id='9045'>0.21225E+02</wgt>
<wgt id='9046'>0.21200E+02</wgt>
<wgt id='9047'>0.21218E+02</wgt>
<wgt id='9048'>0.21237E+02</wgt>
<wgt id='9049'>0.21219E+02</wgt>
<wgt id='9050'>0.21235E+02</wgt>
<wgt id='9051'>0.21236E+02</wgt>
<wgt id='9052'>0.21234E+02</wgt>
<wgt id='9053'>0.21232E+02</wgt>
<wgt id='9054'>0.21218E+02</wgt>
<wgt id='9055'>0.21226E+02</wgt>
<wgt id='9056'>0.21250E+02</wgt>
<wgt id='9057'>0.21228E+02</wgt>
<wgt id='9058'>0.21215E+02</wgt>
<wgt id='9059'>0.21220E+02</wgt>
<wgt id='9060'>0.21223E+02</wgt>
<wgt id='9061'>0.21233E+02</wgt>
<wgt id='9062'>0.21233E+02</wgt>
<wgt id='9063'>0.21239E+02</wgt>
<wgt id='9064'>0.21225E+02</wgt>
<wgt id='9065'>0.21229E+02</wgt>
<wgt id='9066'>0.21231E+02</wgt>
<wgt id='9067'>0.21237E+02</wgt>
<wgt id='9068'>0.21236E+02</wgt>
<wgt id='9069'>0.21241E+02</wgt>
<wgt id='9070'>0.21227E+02</wgt>
<wgt id='9071'>0.21241E+02</wgt>
<wgt id='9072'>0.21242E+02</wgt>
<wgt id='9073'>0.21224E+02</wgt>
<wgt id='9074'>0.21233E+02</wgt>
<wgt id='9075'>0.21229E+02</wgt>
<wgt id='9076'>0.21228E+02</wgt>
<wgt id='9077'>0.21232E+02</wgt>
<wgt id='9078'>0.21231E+02</wgt>
<wgt id='9079'>0.21226E+02</wgt>
<wgt id='9080'>0.21243E+02</wgt>
<wgt id='9081'>0.21227E+02</wgt>
<wgt id='9082'>0.21234E+02</wgt>
<wgt id='9083'>0.21223E+02</wgt>
<wgt id='9084'>0.21224E+02</wgt>
<wgt id='9085'>0.21224E+02</wgt>
<wgt id='9086'>0.21232E+02</wgt>
<wgt id='9087'>0.21217E+02</wgt>
<wgt id='9088'>0.21225E+02</wgt>
<wgt id='9089'>0.21225E+02</wgt>
<wgt id='9090'>0.21232E+02</wgt>
<wgt id='9091'>0.21227E+02</wgt>
<wgt id='9092'>0.21229E+02</wgt>
<wgt id='9093'>0.21226E+02</wgt>
<wgt id='9094'>0.21228E+02</wgt>
<wgt id='9095'>0.21232E+02</wgt>
<wgt id='9096'>0.21226E+02</wgt>
<wgt id='9097'>0.21231E+02</wgt>
<wgt id='9098'>0.21229E+02</wgt>
<wgt id='9099'>0.21225E+02</wgt>
<wgt id='9100'>0.21229E+02</wgt>
<wgt id='9101'>0.20922E+02</wgt>
<wgt id='9102'>0.21469E+02</wgt>
<wgt id='10000'>0.22347E+02</wgt>
<wgt id='10001'>0.22448E+02</wgt>
<wgt id='10002'>0.22357E+02</wgt>
<wgt id='10003'>0.22354E+02</wgt>
<wgt id='10004'>0.22430E+02</wgt>
<wgt id='10005'>0.22992E+02</wgt>
<wgt id='10006'>0.22350E+02</wgt>
<wgt id='10007'>0.22343E+02</wgt>
<wgt id='10008'>0.22376E+02</wgt>
<wgt id='10009'>0.22310E+02</wgt>
<wgt id='10010'>0.22352E+02</wgt>
<wgt id='10011'>0.22324E+02</wgt>
<wgt id='10012'>0.22313E+02</wgt>
<wgt id='10013'>0.22341E+02</wgt>
<wgt id='10014'>0.22358E+02</wgt>
<wgt id='10015'>0.22373E+02</wgt>
<wgt id='10016'>0.22358E+02</wgt>
<wgt id='10017'>0.22213E+02</wgt>
<wgt id='10018'>0.22367E+02</wgt>
<wgt id='10019'>0.22306E+02</wgt>
<wgt id='10020'>0.22362E+02</wgt>
<wgt id='10021'>0.22351E+02</wgt>
<wgt id='10022'>0.22342E+02</wgt>
<wgt id='10023'>0.22360E+02</wgt>
<wgt id='10024'>0.22351E+02</wgt>
<wgt id='10025'>0.22335E+02</wgt>
<wgt id='10026'>0.22342E+02</wgt>
<wgt id='10027'>0.22341E+02</wgt>
<wgt id='10028'>0.22381E+02</wgt>
<wgt id='10029'>0.22369E+02</wgt>
<wgt id='10030'>0.22338E+02</wgt>
<wgt id='10031'>0.21938E+02</wgt>
<wgt id='10032'>0.22701E+02</wgt>
<wgt id='11000'>0.21228E+02</wgt>
<wgt id='11001'>0.21247E+02</wgt>
<wgt id='11002'>0.21299E+02</wgt>
<wgt id='11003'>0.21206E+02</wgt>
<wgt id='11004'>0.21295E+02</wgt>
<wgt id='11005'>0.20940E+02</wgt>
<wgt id='11006'>0.21221E+02</wgt>
<wgt id='11007'>0.21184E+02</wgt>
<wgt id='11008'>0.21186E+02</wgt>
<wgt id='11009'>0.21126E+02</wgt>
<wgt id='11010'>0.21279E+02</wgt>
<wgt id='11011'>0.21106E+02</wgt>
<wgt id='11012'>0.21246E+02</wgt>
<wgt id='11013'>0.21311E+02</wgt>
<wgt id='11014'>0.21161E+02</wgt>
<wgt id='11015'>0.21200E+02</wgt>
<wgt id='11016'>0.21207E+02</wgt>
<wgt id='11017'>0.21405E+02</wgt>
<wgt id='11018'>0.21232E+02</wgt>
<wgt id='11019'>0.21224E+02</wgt>
<wgt id='11020'>0.21247E+02</wgt>
<wgt id='11021'>0.21300E+02</wgt>
<wgt id='11022'>0.21648E+02</wgt>
<wgt id='11023'>0.21216E+02</wgt>
<wgt id='11024'>0.21206E+02</wgt>
<wgt id='11025'>0.21172E+02</wgt>
<wgt id='11026'>0.21225E+02</wgt>
<wgt id='11027'>0.21224E+02</wgt>
<wgt id='11028'>0.21214E+02</wgt>
<wgt id='11029'>0.21212E+02</wgt>
<wgt id='11030'>0.21231E+02</wgt>
<wgt id='11031'>0.20922E+02</wgt>
<wgt id='11032'>0.21469E+02</wgt>
<wgt id='12000'>0.23720E+02</wgt>
<wgt id='12001'>0.23688E+02</wgt>
<wgt id='12002'>0.23751E+02</wgt>
<wgt id='12003'>0.23777E+02</wgt>
<wgt id='12004'>0.23662E+02</wgt>
<wgt id='12005'>0.23760E+02</wgt>
<wgt id='12006'>0.23679E+02</wgt>
<wgt id='12007'>0.23784E+02</wgt>
<wgt id='12008'>0.23657E+02</wgt>
<wgt id='12009'>0.23759E+02</wgt>
<wgt id='12010'>0.23681E+02</wgt>
<wgt id='12011'>0.23684E+02</wgt>
<wgt id='12012'>0.23759E+02</wgt>
<wgt id='12013'>0.23625E+02</wgt>
<wgt id='12014'>0.23815E+02</wgt>
<wgt id='12015'>0.23723E+02</wgt>
<wgt id='12016'>0.23683E+02</wgt>
<wgt id='12017'>0.23789E+02</wgt>
<wgt id='12018'>0.23641E+02</wgt>
<wgt id='12019'>0.23631E+02</wgt>
<wgt id='12020'>0.23804E+02</wgt>
<wgt id='12021'>0.23814E+02</wgt>
<wgt id='12022'>0.23598E+02</wgt>
<wgt id='12023'>0.23634E+02</wgt>
<wgt id='12024'>0.23685E+02</wgt>
<wgt id='12025'>0.23794E+02</wgt>
<wgt id='12026'>0.23679E+02</wgt>
<wgt id='12027'>0.23681E+02</wgt>
<wgt id='12028'>0.23778E+02</wgt>
<wgt id='12050'>0.23720E+02</wgt>
<wgt id='12051'>0.23696E+02</wgt>
<wgt id='12052'>0.23736E+02</wgt>
<wgt id='12053'>0.23690E+02</wgt>
<wgt id='12054'>0.23731E+02</wgt>
<wgt id='12055'>0.23786E+02</wgt>
<wgt id='12056'>0.23526E+02</wgt>
<wgt id='12057'>0.23624E+02</wgt>
<wgt id='12058'>0.23807E+02</wgt>
<wgt id='12059'>0.23660E+02</wgt>
<wgt id='12060'>0.23784E+02</wgt>
<wgt id='12061'>0.23722E+02</wgt>
<wgt id='12062'>0.23764E+02</wgt>
<wgt id='12063'>0.23487E+02</wgt>
<wgt id='13000'>0.21399E+02</wgt>
<wgt id='13001'>0.21383E+02</wgt>
<wgt id='13002'>0.21412E+02</wgt>
<wgt id='13003'>0.21425E+02</wgt>
<wgt id='13004'>0.21370E+02</wgt>
<wgt id='13005'>0.21450E+02</wgt>
<wgt id='13006'>0.21345E+02</wgt>
<wgt id='13007'>0.21489E+02</wgt>
<wgt id='13008'>0.21308E+02</wgt>
<wgt id='13009'>0.21403E+02</wgt>
<wgt id='13010'>0.21392E+02</wgt>
<wgt id='13011'>0.21450E+02</wgt>
<wgt id='13012'>0.21345E+02</wgt>
<wgt id='13013'>0.21332E+02</wgt>
<wgt id='13014'>0.21462E+02</wgt>
<wgt id='13015'>0.21362E+02</wgt>
<wgt id='13016'>0.21414E+02</wgt>
<wgt id='13017'>0.21384E+02</wgt>
<wgt id='13018'>0.21406E+02</wgt>
<wgt id='13019'>0.21359E+02</wgt>
<wgt id='13020'>0.21434E+02</wgt>
<wgt id='13021'>0.21217E+02</wgt>
<wgt id='13022'>0.21548E+02</wgt>
<wgt id='13023'>0.21413E+02</wgt>
<wgt id='13024'>0.21380E+02</wgt>
<wgt id='13025'>0.21355E+02</wgt>
<wgt id='13026'>0.21388E+02</wgt>
<wgt id='13027'>0.21411E+02</wgt>
<wgt id='13028'>0.21407E+02</wgt>
<wgt id='13050'>0.21399E+02</wgt>
<wgt id='13051'>0.21402E+02</wgt>
<wgt id='13052'>0.21352E+02</wgt>
<wgt id='13053'>0.21393E+02</wgt>
<wgt id='13054'>0.21390E+02</wgt>
<wgt id='13055'>0.21380E+02</wgt>
<wgt id='13056'>0.21401E+02</wgt>
<wgt id='13057'>0.21322E+02</wgt>
<wgt id='13058'>0.21509E+02</wgt>
<wgt id='13059'>0.21340E+02</wgt>
<wgt id='13060'>0.21470E+02</wgt>
<wgt id='13061'>0.21346E+02</wgt>
<wgt id='13062'>0.21555E+02</wgt>
<wgt id='13063'>0.21253E+02</wgt>
<wgt id='14000'>0.22175E+02</wgt>
<wgt id='14001'>0.22171E+02</wgt>
<wgt id='14002'>0.22167E+02</wgt>
<wgt id='14003'>0.22164E+02</wgt>
<wgt id='14004'>0.22160E+02</wgt>
<wgt id='14005'>0.22157E+02</wgt>
<wgt id='14006'>0.22153E+02</wgt>
<wgt id='14007'>0.22150E+02</wgt>
<wgt id='14008'>0.22146E+02</wgt>
<wgt id='14009'>0.22143E+02</wgt>
<wgt id='14010'>0.22139E+02</wgt>
<wgt id='14011'>0.22135E+02</wgt>
<wgt id='14012'>0.22132E+02</wgt>
<wgt id='14013'>0.22128E+02</wgt>
<wgt id='14014'>0.22124E+02</wgt>
<wgt id='14015'>0.22121E+02</wgt>
<wgt id='14016'>0.22117E+02</wgt>
<wgt id='14017'>0.22114E+02</wgt>
<wgt id='14018'>0.22110E+02</wgt>
<wgt id='14019'>0.22107E+02</wgt>
<wgt id='14020'>0.22103E+02</wgt>
<wgt id='14021'>0.22099E+02</wgt>
<wgt id='14022'>0.22096E+02</wgt>
<wgt id='14023'>0.22092E+02</wgt>
<wgt id='14024'>0.22089E+02</wgt>
<wgt id='14025'>0.22085E+02</wgt>
<wgt id='14026'>0.22081E+02</wgt>
<wgt id='14027'>0.22078E+02</wgt>
<wgt id='14028'>0.22074E+02</wgt>
<wgt id='14029'>0.22071E+02</wgt>
<wgt id='14030'>0.22067E+02</wgt>
<wgt id='15000'>0.20980E+02</wgt>
<wgt id='15001'>0.21019E+02</wgt>
<wgt id='15002'>0.21089E+02</wgt>
<wgt id='15003'>0.20791E+02</wgt>
<wgt id='15004'>0.20941E+02</wgt>
<wgt id='15005'>0.21091E+02</wgt>
<wgt id='15006'>0.20919E+02</wgt>
<wgt id='15007'>0.20981E+02</wgt>
<wgt id='15008'>0.21024E+02</wgt>
<wgt id='15009'>0.20968E+02</wgt>
<wgt id='15010'>0.20949E+02</wgt>
<wgt id='15011'>0.21209E+02</wgt>
<wgt id='15012'>0.20709E+02</wgt>
<wgt id='15013'>0.20700E+02</wgt>
<wgt id='15014'>0.20731E+02</wgt>
<wgt id='15015'>0.20953E+02</wgt>
<wgt id='15016'>0.21059E+02</wgt>
<wgt id='15017'>0.20995E+02</wgt>
<wgt id='15018'>0.20979E+02</wgt>
<wgt id='15019'>0.20961E+02</wgt>
<wgt id='15020'>0.21068E+02</wgt>
<wgt id='15021'>0.20971E+02</wgt>
<wgt id='15022'>0.21006E+02</wgt>
<wgt id='15023'>0.20950E+02</wgt>
<wgt id='15024'>0.20949E+02</wgt>
<wgt id='15025'>0.21009E+02</wgt>
<wgt id='15026'>0.20990E+02</wgt>
<wgt id='15027'>0.20959E+02</wgt>
<wgt id='15028'>0.20997E+02</wgt>
<wgt id='15029'>0.21000E+02</wgt>
<wgt id='15030'>0.20991E+02</wgt>
<wgt id='15031'>0.20977E+02</wgt>
<wgt id='15032'>0.20994E+02</wgt>
<wgt id='15033'>0.21007E+02</wgt>
<wgt id='15034'>0.20966E+02</wgt>
<wgt id='15035'>0.21016E+02</wgt>
<wgt id='15036'>0.20978E+02</wgt>
<wgt id='15037'>0.21001E+02</wgt>
<wgt id='15038'>0.20980E+02</wgt>
<wgt id='15039'>0.20981E+02</wgt>
<wgt id='15040'>0.20955E+02</wgt>
<wgt id='15041'>0.20970E+02</wgt>
<wgt id='15042'>0.20975E+02</wgt>
<wgt id='15043'>0.20965E+02</wgt>
<wgt id='15044'>0.20987E+02</wgt>
<wgt id='15045'>0.20976E+02</wgt>
<wgt id='15046'>0.20951E+02</wgt>
<wgt id='15047'>0.20968E+02</wgt>
<wgt id='15048'>0.20988E+02</wgt>
<wgt id='15049'>0.20969E+02</wgt>
<wgt id='15050'>0.20986E+02</wgt>
<wgt id='15051'>0.20987E+02</wgt>
<wgt id='15052'>0.20984E+02</wgt>
<wgt id='15053'>0.20983E+02</wgt>
<wgt id='15054'>0.20969E+02</wgt>
<wgt id='15055'>0.20977E+02</wgt>
<wgt id='15056'>0.21000E+02</wgt>
<wgt id='15057'>0.20978E+02</wgt>
<wgt id='15058'>0.20966E+02</wgt>
<wgt id='15059'>0.20971E+02</wgt>
<wgt id='15060'>0.20974E+02</wgt>
<wgt id='15061'>0.20984E+02</wgt>
<wgt id='15062'>0.20984E+02</wgt>
<wgt id='15063'>0.20989E+02</wgt>
<wgt id='15064'>0.20976E+02</wgt>
<wgt id='15065'>0.20980E+02</wgt>
<wgt id='15066'>0.20982E+02</wgt>
<wgt id='15067'>0.20987E+02</wgt>
<wgt id='15068'>0.20987E+02</wgt>
<wgt id='15069'>0.20991E+02</wgt>
<wgt id='15070'>0.20978E+02</wgt>
<wgt id='15071'>0.20992E+02</wgt>
<wgt id='15072'>0.20992E+02</wgt>
<wgt id='15073'>0.20974E+02</wgt>
<wgt id='15074'>0.20983E+02</wgt>
<wgt id='15075'>0.20979E+02</wgt>
<wgt id='15076'>0.20979E+02</wgt>
<wgt id='15077'>0.20983E+02</wgt>
<wgt id='15078'>0.20982E+02</wgt>
<wgt id='15079'>0.20977E+02</wgt>
<wgt id='15080'>0.20994E+02</wgt>
<wgt id='15081'>0.20978E+02</wgt>
<wgt id='15082'>0.20985E+02</wgt>
<wgt id='15083'>0.20974E+02</wgt>
<wgt id='15084'>0.20975E+02</wgt>
<wgt id='15085'>0.20975E+02</wgt>
<wgt id='15086'>0.20983E+02</wgt>
<wgt id='15087'>0.20968E+02</wgt>
<wgt id='15088'>0.20976E+02</wgt>
<wgt id='15089'>0.20975E+02</wgt>
<wgt id='15090'>0.20983E+02</wgt>
<wgt id='15091'>0.20978E+02</wgt>
<wgt id='15092'>0.20980E+02</wgt>
<wgt id='15093'>0.20977E+02</wgt>
<wgt id='15094'>0.20979E+02</wgt>
<wgt id='15095'>0.20983E+02</wgt>
<wgt id='15096'>0.20976E+02</wgt>
<wgt id='15097'>0.20982E+02</wgt>
<wgt id='15098'>0.20980E+02</wgt>
<wgt id='15099'>0.20976E+02</wgt>
<wgt id='15100'>0.20980E+02</wgt>
<wgt id='15101'>0.20980E+02</wgt>
<wgt id='15102'>0.20979E+02</wgt>
<wgt id='15103'>0.20981E+02</wgt>
<wgt id='15104'>0.20981E+02</wgt>
<wgt id='15105'>0.20981E+02</wgt>
<wgt id='15106'>0.20980E+02</wgt>
<wgt id='15107'>0.20979E+02</wgt>
<wgt id='1500'>0.22132E+02</wgt>
<wgt id='1501'>0.20200E+02</wgt>
<wgt id='1502'>0.22287E+02</wgt>
<wgt id='1503'>0.21984E+02</wgt>
<wgt id='1504'>0.21871E+02</wgt>
<wgt id='1505'>0.19398E+02</wgt>
<wgt id='1506'>0.22156E+02</wgt>
<wgt id='1507'>0.22499E+02</wgt>
<wgt id='1508'>0.21975E+02</wgt>
<wgt id='1509'>0.22114E+02</wgt>
<wgt id='1510'>0.21520E+02</wgt>
<wgt id='1511'>0.21844E+02</wgt>
<wgt id='1512'>0.22520E+02</wgt>
<wgt id='1513'>0.22509E+02</wgt>
<wgt id='1514'>0.21534E+02</wgt>
<wgt id='1515'>0.22140E+02</wgt>
<wgt id='1516'>0.22547E+02</wgt>
<wgt id='1517'>0.21761E+02</wgt>
<wgt id='1518'>0.21915E+02</wgt>
<wgt id='1519'>0.22350E+02</wgt>
<wgt id='1520'>0.22403E+02</wgt>
<wgt id='1521'>0.22244E+02</wgt>
<wgt id='1522'>0.22002E+02</wgt>
<wgt id='1523'>0.23862E+02</wgt>
<wgt id='1524'>0.21916E+02</wgt>
<wgt id='1525'>0.22478E+02</wgt>
<wgt id='1526'>0.21684E+02</wgt>
<wgt id='1527'>0.21948E+02</wgt>
<wgt id='1528'>0.21998E+02</wgt>
<wgt id='1529'>0.21820E+02</wgt>
<wgt id='1530'>0.22553E+02</wgt>
<wgt id='1531'>0.22036E+02</wgt>
<wgt id='1532'>0.21534E+02</wgt>
<wgt id='1533'>0.22717E+02</wgt>
<wgt id='1534'>0.22299E+02</wgt>
<wgt id='1535'>0.22829E+02</wgt>
<wgt id='1536'>0.22834E+02</wgt>
<wgt id='1537'>0.22359E+02</wgt>
<wgt id='1538'>0.21869E+02</wgt>
<wgt id='1539'>0.21268E+02</wgt>
<wgt id='1540'>0.22476E+02</wgt>
<wgt id='1541'>0.22033E+02</wgt>
<wgt id='1542'>0.22542E+02</wgt>
<wgt id='1543'>0.22401E+02</wgt>
<wgt id='1544'>0.21953E+02</wgt>
<wgt id='1545'>0.22592E+02</wgt>
<wgt id='1546'>0.22261E+02</wgt>
<wgt id='1547'>0.21759E+02</wgt>
<wgt id='1548'>0.21693E+02</wgt>
<wgt id='1549'>0.22390E+02</wgt>
<wgt id='1550'>0.22228E+02</wgt>
<wgt id='1551'>0.22148E+02</wgt>
<wgt id='1552'>0.22090E+02</wgt>
<wgt id='1553'>0.22540E+02</wgt>
<wgt id='1554'>0.22131E+02</wgt>
<wgt id='1555'>0.22218E+02</wgt>
<wgt id='1556'>0.21502E+02</wgt>
<wgt id='1557'>0.23087E+02</wgt>
<wgt id='1558'>0.21960E+02</wgt>
<wgt id='1559'>0.22413E+02</wgt>
<wgt id='1560'>0.22064E+02</wgt>
<wgt id='1561'>0.22410E+02</wgt>
<wgt id='1562'>0.22176E+02</wgt>
<wgt id='1563'>0.22573E+02</wgt>
<wgt id='1564'>0.21871E+02</wgt>
<wgt id='1565'>0.22474E+02</wgt>
<wgt id='1566'>0.22210E+02</wgt>
<wgt id='1567'>0.23178E+02</wgt>
<wgt id='1568'>0.21837E+02</wgt>
<wgt id='1569'>0.21623E+02</wgt>
<wgt id='1570'>0.22219E+02</wgt>
<wgt id='1571'>0.22738E+02</wgt>
<wgt id='1572'>0.21940E+02</wgt>
<wgt id='1573'>0.20414E+02</wgt>
<wgt id='1574'>0.22342E+02</wgt>
<wgt id='1575'>0.21909E+02</wgt>
<wgt id='1576'>0.21531E+02</wgt>
<wgt id='1577'>0.22316E+02</wgt>
<wgt id='1578'>0.23023E+02</wgt>
<wgt id='1579'>0.22038E+02</wgt>
<wgt id='1580'>0.22319E+02</wgt>
<wgt id='1581'>0.22277E+02</wgt>
<wgt id='1582'>0.21881E+02</wgt>
<wgt id='1583'>0.22159E+02</wgt>
<wgt id='1584'>0.22232E+02</wgt>
<wgt id='1585'>0.21494E+02</wgt>
<wgt id='1586'>0.22071E+02</wgt>
<wgt id='1587'>0.22082E+02</wgt>
<wgt id='1588'>0.22185E+02</wgt>
<wgt id='1589'>0.22557E+02</wgt>
<wgt id='1590'>0.22039E+02</wgt>
<wgt id='1591'>0.21445E+02</wgt>
<wgt id='1592'>0.22751E+02</wgt>
<wgt id='1593'>0.21941E+02</wgt>
<wgt id='1594'>0.22696E+02</wgt>
<wgt id='1595'>0.21754E+02</wgt>
<wgt id='1596'>0.22483E+02</wgt>
<wgt id='1597'>0.22272E+02</wgt>
<wgt id='1598'>0.23130E+02</wgt>
<wgt id='1599'>0.22772E+02</wgt>
<wgt id='1600'>0.21980E+02</wgt>
<wgt id='1601'>0.21778E+02</wgt>
<wgt id='1602'>0.22286E+02</wgt>
<wgt id='1700'>0.21315E+02</wgt>
<wgt id='1800'>0.25928E+02</wgt>
<wgt id='1850'>0.30952E+02</wgt>
<wgt id='1900'>0.25378E+02</wgt>
<wgt id='1950'>0.29864E+02</wgt>
</rwgt>
</event>
<event>
      4   9999  2.16956E+01  3.96800E+01 -1.00000E+00  1.42868E-01
      21    -1     0     0   511   501  0.000000000E+00  0.000000000E+00  1.097208250E+02  1.097208250E+02  0.000000000E+00  0.00000E+00  9.000E+00
      21    -1     0     0   501   502  0.000000000E+00  0.000000000E+00 -7.147891248E+01  7.147891248E+01  0.000000000E+00  0.00000E+00  9.000E+00
      25     1     1     2     0     0  2.012023798E+01 -3.420058513E+01  8.150683956E+00  1.314002793E+02  1.250003830E+02  0.00000E+00  9.000E+00
      21     1     1     2   511   502 -2.012023798E+01  3.420058513E+01  3.009122859E+01  4.979945821E+01  5.840038640E-07  0.00000E+00  9.000E+00
#rwgt            1           1   18.221668950455754                1        4396           0
<rwgt>
<wgt id='1001'>0.21696E+02</wgt>
<wgt id='1002'>0.24273E+02</wgt>
<wgt id='1003'>0.18995E+02</wgt>
<wgt id='1004'>0.18180E+02</wgt>
<wgt id='1005'>0.20211E+02</wgt>
<wgt id='1006'>0.16022E+02</wgt>
<wgt id='1007'>0.26372E+02</wgt>
<wgt id='1008'>0.29738E+02</wgt>
<wgt id='1009'>0.22897E+02</wgt>
<wgt id='2000'>0.21696E+02</wgt>
<wgt id='2001'>0.21673E+02</wgt>
<wgt id='2002'>0.21794E+02</wgt>
<wgt id='2003'>0.21787E+02</wgt>
<wgt id='2004'>0.21723E+02</wgt>
<wgt id='2005'>0.21635E+02</wgt>
<wgt id='2006'>0.21628E+02</wgt>
<wgt id='2007'>0.21600E+02</wgt>
<wgt id='2008'>0.21653E+02</wgt>
<wgt id='2009'>0.21721E+02</wgt>
<wgt id='2010'>0.21676E+02</wgt>
<wgt id='2011'>0.21811E+02</wgt>
<wgt id='2012'>0.21826E+02</wgt>
<wgt id='2013'>0.21911E+02</wgt>
<wgt id='2014'>0.21777E+02</wgt>
<wgt id='2015'>0.21740E+02</wgt>
<wgt id='2016'>0.21634E+02</wgt>
<wgt id='2017'>0.21694E+02</wgt>
<wgt id='2018'>0.21782E+02</wgt>
<wgt id='2019'>0.21685E+02</wgt>
<wgt id='2020'>0.21746E+02</wgt>
<wgt id='2021'>0.21670E+02</wgt>
<wgt id='2022'>0.21693E+02</wgt>
<wgt id='2023'>0.21706E+02</wgt>
<wgt id='2024'>0.21710E+02</wgt>
<wgt id='2025'>0.21685E+02</wgt>
<wgt id='2026'>0.21689E+02</wgt>
<wgt id='2027'>0.21689E+02</wgt>
<wgt id='2028'>0.21691E+02</wgt>
<wgt id='2029'>0.21715E+02</wgt>
<wgt id='2030'>0.21701E+02</wgt>
<wgt id='2031'>0.21706E+02</wgt>
<wgt id='2032'>0.21688E+02</wgt>
<wgt id='2033'>0.21696E+02</wgt>
<wgt id='2034'>0.21712E+02</wgt>
<wgt id='2035'>0.21691E+02</wgt>
<wgt id='2036'>0.21704E+02</wgt>
<wgt id='2037'>0.21703E+02</wgt>
<wgt id='2038'>0.21696E+02</wgt>
<wgt id='2039'>0.21686E+02</wgt>
<wgt id='2040'>0.21705E+02</wgt>
<wgt id='2041'>0.21700E+02</wgt>
<wgt id='2042'>0.21689E+02</wgt>
<wgt id='2043'>0.21700E+02</wgt>
<wgt id='2044'>0.21702E+02</wgt>
<wgt id='2045'>0.21697E+02</wgt>
<wgt id='2046'>0.21700E+02</wgt>
<wgt id='2047'>0.21705E+02</wgt>
<wgt id='2048'>0.21696E+02</wgt>
<wgt id='2049'>0.21695E+02</wgt>
<wgt id='2050'>0.21699E+02</wgt>
<wgt id='2051'>0.21703E+02</wgt>
<wgt id='2052'>0.21692E+02</wgt>
<wgt id='2053'>0.21693E+02</wgt>
<wgt id='2054'>0.21694E+02</wgt>
<wgt id='2055'>0.21698E+02</wgt>
<wgt id='2056'>0.21695E+02</wgt>
<wgt id='2057'>0.21694E+02</wgt>
<wgt id='2058'>0.21699E+02</wgt>
<wgt id='2059'>0.21695E+02</wgt>
<wgt id='2060'>0.21696E+02</wgt>
<wgt id='2061'>0.21693E+02</wgt>
<wgt id='2062'>0.21696E+02</wgt>
<wgt id='2063'>0.21696E+02</wgt>
<wgt id='2064'>0.21692E+02</wgt>
<wgt id='2065'>0.21699E+02</wgt>
<wgt id='2066'>0.21694E+02</wgt>
<wgt id='2067'>0.21696E+02</wgt>
<wgt id='2068'>0.21698E+02</wgt>
<wgt id='2069'>0.21693E+02</wgt>
<wgt id='2070'>0.21695E+02</wgt>
<wgt id='2071'>0.21688E+02</wgt>
<wgt id='2072'>0.21696E+02</wgt>
<wgt id='2073'>0.21695E+02</wgt>
<wgt id='2074'>0.21690E+02</wgt>
<wgt id='2075'>0.21696E+02</wgt>
<wgt id='2076'>0.21692E+02</wgt>
<wgt id='2077'>0.21694E+02</wgt>
<wgt id='2078'>0.21698E+02</wgt>
<wgt id='2079'>0.21696E+02</wgt>
<wgt id='2080'>0.21695E+02</wgt>
<wgt id='2081'>0.21696E+02</wgt>
<wgt id='2082'>0.21696E+02</wgt>
<wgt id='2083'>0.21695E+02</wgt>
<wgt id='2084'>0.21697E+02</wgt>
<wgt id='2085'>0.21699E+02</wgt>
<wgt id='2086'>0.21692E+02</wgt>
<wgt id='2087'>0.21694E+02</wgt>
<wgt id='2088'>0.21698E+02</wgt>
<wgt id='2089'>0.21694E+02</wgt>
<wgt id='2090'>0.21693E+02</wgt>
<wgt id='2091'>0.21696E+02</wgt>
<wgt id='2092'>0.21695E+02</wgt>
<wgt id='2093'>0.21694E+02</wgt>
<wgt id='2094'>0.21696E+02</wgt>
<wgt id='2095'>0.21698E+02</wgt>
<wgt id='2096'>0.21696E+02</wgt>
<wgt id='2097'>0.21696E+02</wgt>
<wgt id='2098'>0.21696E+02</wgt>
<wgt id='2099'>0.21695E+02</wgt>
<wgt id='2100'>0.21696E+02</wgt>
<wgt id='2101'>0.21142E+02</wgt>
<wgt id='2102'>0.22173E+02</wgt>
<wgt id='2104'>0.19163E+02</wgt>
<wgt id='2105'>0.19583E+02</wgt>
<wgt id='2106'>0.20088E+02</wgt>
<wgt id='2107'>0.20666E+02</wgt>
<wgt id='2108'>0.21484E+02</wgt>
<wgt id='2109'>0.21995E+02</wgt>
<wgt id='2110'>0.22665E+02</wgt>
<wgt id='2111'>0.23181E+02</wgt>
<wgt id='3000'>0.22627E+02</wgt>
<wgt id='3001'>0.22713E+02</wgt>
<wgt id='3002'>0.22529E+02</wgt>
<wgt id='3003'>0.22720E+02</wgt>
<wgt id='3004'>0.22679E+02</wgt>
<wgt id='3005'>0.22744E+02</wgt>
<wgt id='3006'>0.22665E+02</wgt>
<wgt id='3007'>0.22680E+02</wgt>
<wgt id='3008'>0.22552E+02</wgt>
<wgt id='3009'>0.22600E+02</wgt>
<wgt id='3010'>0.22534E+02</wgt>
<wgt id='3011'>0.22686E+02</wgt>
<wgt id='3012'>0.22805E+02</wgt>
<wgt id='3013'>0.22425E+02</wgt>
<wgt id='3014'>0.22726E+02</wgt>
<wgt id='3015'>0.22727E+02</wgt>
<wgt id='3016'>0.22637E+02</wgt>
<wgt id='3017'>0.22733E+02</wgt>
<wgt id='3018'>0.22647E+02</wgt>
<wgt id='3019'>0.22554E+02</wgt>
<wgt id='3020'>0.22630E+02</wgt>
<wgt id='3021'>0.22585E+02</wgt>
<wgt id='3022'>0.22625E+02</wgt>
<wgt id='3023'>0.22616E+02</wgt>
<wgt id='3024'>0.22644E+02</wgt>
<wgt id='3025'>0.22634E+02</wgt>
<wgt id='3026'>0.22620E+02</wgt>
<wgt id='3027'>0.22637E+02</wgt>
<wgt id='3028'>0.22628E+02</wgt>
<wgt id='3029'>0.22630E+02</wgt>
<wgt id='3030'>0.22648E+02</wgt>
<wgt id='3031'>0.22635E+02</wgt>
<wgt id='3032'>0.22626E+02</wgt>
<wgt id='3033'>0.22636E+02</wgt>
<wgt id='3034'>0.22626E+02</wgt>
<wgt id='3035'>0.22647E+02</wgt>
<wgt id='3036'>0.22634E+02</wgt>
<wgt id='3037'>0.22629E+02</wgt>
<wgt id='3038'>0.22629E+02</wgt>
<wgt id='3039'>0.22616E+02</wgt>
<wgt id='3040'>0.22626E+02</wgt>
<wgt id='3041'>0.22635E+02</wgt>
<wgt id='3042'>0.22621E+02</wgt>
<wgt id='3043'>0.22622E+02</wgt>
<wgt id='3044'>0.22626E+02</wgt>
<wgt id='3045'>0.22634E+02</wgt>
<wgt id='3046'>0.22636E+02</wgt>
<wgt id='3047'>0.22624E+02</wgt>
<wgt id='3048'>0.22631E+02</wgt>
<wgt id='3049'>0.22627E+02</wgt>
<wgt id='3050'>0.22626E+02</wgt>
<wgt id='3051'>0.22638E+02</wgt>
<wgt id='3052'>0.22625E+02</wgt>
<wgt id='3053'>0.22624E+02</wgt>
<wgt id='3054'>0.22624E+02</wgt>
<wgt id='3055'>0.22621E+02</wgt>
<wgt id='3056'>0.22629E+02</wgt>
<wgt id='3057'>0.22621E+02</wgt>
<wgt id='3058'>0.22624E+02</wgt>
<wgt id='3059'>0.22625E+02</wgt>
<wgt id='3060'>0.22628E+02</wgt>
<wgt id='3061'>0.22629E+02</wgt>
<wgt id='3062'>0.22628E+02</wgt>
<wgt id='3063'>0.22633E+02</wgt>
<wgt id='3064'>0.22626E+02</wgt>
<wgt id='3065'>0.22630E+02</wgt>
<wgt id='3066'>0.22629E+02</wgt>
<wgt id='3067'>0.22623E+02</wgt>
<wgt id='3068'>0.22628E+02</wgt>
<wgt id='3069'>0.22622E+02</wgt>
<wgt id='3070'>0.22623E+02</wgt>
<wgt id='3071'>0.22627E+02</wgt>
<wgt id='3072'>0.22632E+02</wgt>
<wgt id='3073'>0.22626E+02</wgt>
<wgt id='3074'>0.22627E+02</wgt>
<wgt id='3075'>0.22626E+02</wgt>
<wgt id='3076'>0.22631E+02</wgt>
<wgt id='3077'>0.22629E+02</wgt>
<wgt id='3078'>0.22628E+02</wgt>
<wgt id='3079'>0.22631E+02</wgt>
<wgt id='3080'>0.22620E+02</wgt>
<wgt id='3081'>0.22627E+02</wgt>
<wgt id='3082'>0.22625E+02</wgt>
<wgt id='3083'>0.22629E+02</wgt>
<wgt id='3084'>0.22627E+02</wgt>
<wgt id='3085'>0.22630E+02</wgt>
<wgt id='3086'>0.22630E+02</wgt>
<wgt id='3087'>0.22624E+02</wgt>
<wgt id='3088'>0.22626E+02</wgt>
<wgt id='3089'>0.22628E+02</wgt>
<wgt id='3090'>0.22629E+02</wgt>
<wgt id='3091'>0.22629E+02</wgt>
<wgt id='3092'>0.22627E+02</wgt>
<wgt id='3093'>0.22626E+02</wgt>
<wgt id='3094'>0.22629E+02</wgt>
<wgt id='3095'>0.22627E+02</wgt>
<wgt id='3096'>0.22627E+02</wgt>
<wgt id='3097'>0.22625E+02</wgt>
<wgt id='3098'>0.22627E+02</wgt>
<wgt id='3099'>0.22628E+02</wgt>
<wgt id='3100'>0.22628E+02</wgt>
<wgt id='3101'>0.22078E+02</wgt>
<wgt id='3102'>0.23262E+02</wgt>
<wgt id='5000'>0.21121E+02</wgt>
<wgt id='5001'>0.21028E+02</wgt>
<wgt id='5002'>0.21085E+02</wgt>
<wgt id='5003'>0.20970E+02</wgt>
<wgt id='5004'>0.21177E+02</wgt>
<wgt id='5005'>0.20624E+02</wgt>
<wgt id='5006'>0.21497E+02</wgt>
<wgt id='5007'>0.21259E+02</wgt>
<wgt id='5008'>0.20831E+02</wgt>
<wgt id='5009'>0.21396E+02</wgt>
<wgt id='5010'>0.20974E+02</wgt>
<wgt id='5011'>0.21078E+02</wgt>
<wgt id='5012'>0.21107E+02</wgt>
<wgt id='5013'>0.20667E+02</wgt>
<wgt id='5014'>0.21104E+02</wgt>
<wgt id='5015'>0.21287E+02</wgt>
<wgt id='5016'>0.20610E+02</wgt>
<wgt id='5017'>0.21188E+02</wgt>
<wgt id='5018'>0.21050E+02</wgt>
<wgt id='5019'>0.21021E+02</wgt>
<wgt id='5020'>0.21199E+02</wgt>
<wgt id='5021'>0.21197E+02</wgt>
<wgt id='5022'>0.21072E+02</wgt>
<wgt id='5023'>0.21076E+02</wgt>
<wgt id='5024'>0.21164E+02</wgt>
<wgt id='5025'>0.21089E+02</wgt>
<wgt id='5026'>0.21147E+02</wgt>
<wgt id='5027'>0.21350E+02</wgt>
<wgt id='5028'>0.20736E+02</wgt>
<wgt id='5029'>0.20713E+02</wgt>
<wgt id='5030'>0.21365E+02</wgt>
<wgt id='5031'>0.20875E+02</wgt>
<wgt id='5032'>0.21476E+02</wgt>
<wgt id='5033'>0.20946E+02</wgt>
<wgt id='5034'>0.21271E+02</wgt>
<wgt id='5035'>0.20771E+02</wgt>
<wgt id='5036'>0.21403E+02</wgt>
<wgt id='5037'>0.21125E+02</wgt>
<wgt id='5038'>0.21106E+02</wgt>
<wgt id='5039'>0.21473E+02</wgt>
<wgt id='5040'>0.20941E+02</wgt>
<wgt id='5041'>0.20859E+02</wgt>
<wgt id='5042'>0.21171E+02</wgt>
<wgt id='5043'>0.21358E+02</wgt>
<wgt id='5044'>0.20525E+02</wgt>
<wgt id='5045'>0.21769E+02</wgt>
<wgt id='5046'>0.20939E+02</wgt>
<wgt id='5047'>0.21268E+02</wgt>
<wgt id='5048'>0.21223E+02</wgt>
<wgt id='5049'>0.21141E+02</wgt>
<wgt id='5050'>0.21162E+02</wgt>
<wgt id='5051'>0.21190E+02</wgt>
<wgt id='5052'>0.21100E+02</wgt>
<wgt id='5053'>0.20944E+02</wgt>
<wgt id='5054'>0.21674E+02</wgt>
<wgt id='5055'>0.20983E+02</wgt>
<wgt id='5056'>0.21233E+02</wgt>
<wgt id='5060'>0.20649E+02</wgt>
<wgt id='5070'>0.21517E+02</wgt>
<wgt id='4000'>0.22315E+02</wgt>
<wgt id='4001'>0.22341E+02</wgt>
<wgt id='4002'>0.22392E+02</wgt>
<wgt id='4003'>0.22897E+02</wgt>
<wgt id='4004'>0.22058E+02</wgt>
<wgt id='4005'>0.22407E+02</wgt>
<wgt id='4006'>0.22242E+02</wgt>
<wgt id='4007'>0.22585E+02</wgt>
<wgt id='4008'>0.22199E+02</wgt>
<wgt id='4009'>0.21808E+02</wgt>
<wgt id='4010'>0.22725E+02</wgt>
<wgt id='4011'>0.22660E+02</wgt>
<wgt id='4012'>0.22120E+02</wgt>
<wgt id='4013'>0.21439E+02</wgt>
<wgt id='4014'>0.22821E+02</wgt>
<wgt id='4015'>0.22497E+02</wgt>
<wgt id='4016'>0.22194E+02</wgt>
<wgt id='4017'>0.22115E+02</wgt>
<wgt id='4018'>0.22554E+02</wgt>
<wgt id='4019'>0.22607E+02</wgt>
<wgt id='4020'>0.21985E+02</wgt>
<wgt id='4021'>0.22372E+02</wgt>
<wgt id='4022'>0.22191E+02</wgt>
<wgt id='4023'>0.22195E+02</wgt>
<wgt id='4024'>0.22422E+02</wgt>
<wgt id='4025'>0.21958E+02</wgt>
<wgt id='4026'>0.22642E+02</wgt>
<wgt id='4027'>0.22233E+02</wgt>
<wgt id='4028'>0.22424E+02</wgt>
<wgt id='4029'>0.22142E+02</wgt>
<wgt id='4030'>0.22375E+02</wgt>
<wgt id='4031'>0.22348E+02</wgt>
<wgt id='4032'>0.22272E+02</wgt>
<wgt id='4033'>0.22308E+02</wgt>
<wgt id='4034'>0.22324E+02</wgt>
<wgt id='4035'>0.22673E+02</wgt>
<wgt id='4036'>0.21970E+02</wgt>
<wgt id='4037'>0.22514E+02</wgt>
<wgt id='4038'>0.21982E+02</wgt>
<wgt id='4039'>0.22303E+02</wgt>
<wgt id='4040'>0.22278E+02</wgt>
<wgt id='4041'>0.22515E+02</wgt>
<wgt id='4042'>0.22128E+02</wgt>
<wgt id='4043'>0.22523E+02</wgt>
<wgt id='4044'>0.22067E+02</wgt>
<wgt id='4045'>0.22057E+02</wgt>
<wgt id='4046'>0.22189E+02</wgt>
<wgt id='4047'>0.21993E+02</wgt>
<wgt id='4048'>0.22600E+02</wgt>
<wgt id='4049'>0.22456E+02</wgt>
<wgt id='4050'>0.21830E+02</wgt>
<wgt id='4051'>0.22265E+02</wgt>
<wgt id='4052'>0.22249E+02</wgt>
<wgt id='4053'>0.21719E+02</wgt>
<wgt id='4054'>0.22481E+02</wgt>
<wgt id='4055'>0.22128E+02</wgt>
<wgt id='4056'>0.22479E+02</wgt>
<wgt id='4060'>0.21727E+02</wgt>
<wgt id='4070'>0.22847E+02</wgt>
<wgt id='4080'>0.21925E+02</wgt>
<wgt id='6000'>0.22668E+02</wgt>
<wgt id='6001'>0.22672E+02</wgt>
<wgt id='6002'>0.22663E+02</wgt>
<wgt id='6003'>0.22676E+02</wgt>
<wgt id='6004'>0.22662E+02</wgt>
<wgt id='6005'>0.22732E+02</wgt>
<wgt id='6006'>0.22608E+02</wgt>
<wgt id='6007'>0.22567E+02</wgt>
<wgt id='6008'>0.22780E+02</wgt>
<wgt id='6009'>0.22733E+02</wgt>
<wgt id='6010'>0.22604E+02</wgt>
<wgt id='6011'>0.22714E+02</wgt>
<wgt id='6012'>0.22566E+02</wgt>
<wgt id='6013'>0.22645E+02</wgt>
<wgt id='6014'>0.22709E+02</wgt>
<wgt id='6015'>0.22595E+02</wgt>
<wgt id='6016'>0.22709E+02</wgt>
<wgt id='6017'>0.22546E+02</wgt>
<wgt id='6018'>0.22812E+02</wgt>
<wgt id='6019'>0.22710E+02</wgt>
<wgt id='6020'>0.22631E+02</wgt>
<wgt id='6021'>0.22618E+02</wgt>
<wgt id='6022'>0.22735E+02</wgt>
<wgt id='6023'>0.22510E+02</wgt>
<wgt id='6024'>0.22778E+02</wgt>
<wgt id='6025'>0.22376E+02</wgt>
<wgt id='6026'>0.22932E+02</wgt>
<wgt id='6027'>0.22726E+02</wgt>
<wgt id='6028'>0.22668E+02</wgt>
<wgt id='6029'>0.22816E+02</wgt>
<wgt id='6030'>0.22496E+02</wgt>
<wgt id='6031'>0.22702E+02</wgt>
<wgt id='6032'>0.22622E+02</wgt>
<wgt id='6033'>0.22709E+02</wgt>
<wgt id='6034'>0.22623E+02</wgt>
<wgt id='6035'>0.22651E+02</wgt>
<wgt id='6036'>0.22750E+02</wgt>
<wgt id='6037'>0.22710E+02</wgt>
<wgt id='6038'>0.22662E+02</wgt>
<wgt id='6039'>0.22650E+02</wgt>
<wgt id='6040'>0.22687E+02</wgt>
<wgt id='6041'>0.22621E+02</wgt>
<wgt id='6042'>0.22724E+02</wgt>
<wgt id='6043'>0.22950E+02</wgt>
<wgt id='6044'>0.22522E+02</wgt>
<wgt id='6045'>0.22649E+02</wgt>
<wgt id='6046'>0.22717E+02</wgt>
<wgt id='6047'>0.22584E+02</wgt>
<wgt id='6048'>0.22565E+02</wgt>
<wgt id='6049'>0.22629E+02</wgt>
<wgt id='6050'>0.22672E+02</wgt>
<wgt id='7000'>0.21237E+02</wgt>
<wgt id='7001'>0.21225E+02</wgt>
<wgt id='7002'>0.21254E+02</wgt>
<wgt id='7003'>0.21304E+02</wgt>
<wgt id='7004'>0.21171E+02</wgt>
<wgt id='7005'>0.21277E+02</wgt>
<wgt id='7006'>0.21221E+02</wgt>
<wgt id='7007'>0.21151E+02</wgt>
<wgt id='7008'>0.21324E+02</wgt>
<wgt id='7009'>0.21270E+02</wgt>
<wgt id='7010'>0.21206E+02</wgt>
<wgt id='7011'>0.21043E+02</wgt>
<wgt id='7012'>0.21322E+02</wgt>
<wgt id='7013'>0.21240E+02</wgt>
<wgt id='7014'>0.21235E+02</wgt>
<wgt id='7015'>0.21179E+02</wgt>
<wgt id='7016'>0.21300E+02</wgt>
<wgt id='7017'>0.21202E+02</wgt>
<wgt id='7018'>0.21255E+02</wgt>
<wgt id='7019'>0.21207E+02</wgt>
<wgt id='7020'>0.21278E+02</wgt>
<wgt id='7021'>0.21232E+02</wgt>
<wgt id='7022'>0.21241E+02</wgt>
<wgt id='7023'>0.21486E+02</wgt>
<wgt id='7024'>0.20997E+02</wgt>
<wgt id='7025'>0.21334E+02</wgt>
<wgt id='7026'>0.21001E+02</wgt>
<wgt id='7027'>0.21331E+02</wgt>
<wgt id='7028'>0.21193E+02</wgt>
<wgt id='7029'>0.21134E+02</wgt>
<wgt id='7030'>0.21511E+02</wgt>
<wgt id='7031'>0.21238E+02</wgt>
<wgt id='7032'>0.21242E+02</wgt>
<wgt id='7033'>0.21206E+02</wgt>
<wgt id='7034'>0.21309E+02</wgt>
<wgt id='7035'>0.21298E+02</wgt>
<wgt id='7036'>0.21220E+02</wgt>
<wgt id='7037'>0.21247E+02</wgt>
<wgt id='7038'>0.21237E+02</wgt>
<wgt id='7039'>0.21220E+02</wgt>
<wgt id='7040'>0.21249E+02</wgt>
<wgt id='7041'>0.21197E+02</wgt>
<wgt id='7042'>0.21258E+02</wgt>
<wgt id='7043'>0.21256E+02</wgt>
<wgt id='7044'>0.21128E+02</wgt>
<wgt id='7045'>0.21069E+02</wgt>
<wgt id='7046'>0.21266E+02</wgt>
<wgt id='7047'>0.21239E+02</wgt>
<wgt id='7048'>0.21227E+02</wgt>
<wgt id='7049'>0.21224E+02</wgt>
<wgt id='7050'>0.21172E+02</wgt>
<wgt id='7060'>0.32700E+02</wgt>
<wgt id='8000'>0.21544E+02</wgt>
<wgt id='8001'>0.21538E+02</wgt>
<wgt id='8002'>0.21550E+02</wgt>
<wgt id='8003'>0.21547E+02</wgt>
<wgt id='8004'>0.21544E+02</wgt>
<wgt id='8005'>0.21493E+02</wgt>
<wgt id='8006'>0.21529E+02</wgt>
<wgt id='8007'>0.21515E+02</wgt>
<wgt id='8008'>0.21582E+02</wgt>
<wgt id='8009'>0.21622E+02</wgt>
<wgt id='8010'>0.21545E+02</wgt>
<wgt id='8011'>0.21532E+02</wgt>
<wgt id='8012'>0.21521E+02</wgt>
<wgt id='8013'>0.21541E+02</wgt>
<wgt id='8014'>0.21529E+02</wgt>
<wgt id='8015'>0.21528E+02</wgt>
<wgt id='8016'>0.21549E+02</wgt>
<wgt id='8017'>0.21544E+02</wgt>
<wgt id='8018'>0.21539E+02</wgt>
<wgt id='8019'>0.21584E+02</wgt>
<wgt id='8020'>0.21469E+02</wgt>
<wgt id='8021'>0.21547E+02</wgt>
<wgt id='8022'>0.21406E+02</wgt>
<wgt id='8023'>0.21573E+02</wgt>
<wgt id='8024'>0.21598E+02</wgt>
<wgt id='8025'>0.21625E+02</wgt>
<wgt id='8026'>0.21590E+02</wgt>
<wgt id='8027'>0.21504E+02</wgt>
<wgt id='8028'>0.21565E+02</wgt>
<wgt id='8029'>0.21396E+02</wgt>
<wgt id='8500'>0.22371E+02</wgt>
<wgt id='8501'>0.22325E+02</wgt>
<wgt id='8502'>0.22597E+02</wgt>
<wgt id='8503'>0.22532E+02</wgt>
<wgt id='8504'>0.22314E+02</wgt>
<wgt id='8505'>0.22259E+02</wgt>
<wgt id='8506'>0.22298E+02</wgt>
<wgt id='8507'>0.22519E+02</wgt>
<wgt id='8508'>0.22727E+02</wgt>
<wgt id='8509'>0.22212E+02</wgt>
<wgt id='8510'>0.22696E+02</wgt>
<wgt id='8511'>0.22384E+02</wgt>
<wgt id='8512'>0.22106E+02</wgt>
<wgt id='8513'>0.22407E+02</wgt>
<wgt id='8514'>0.22293E+02</wgt>
<wgt id='8515'>0.22371E+02</wgt>
<wgt id='8516'>0.22440E+02</wgt>
<wgt id='8517'>0.22340E+02</wgt>
<wgt id='8518'>0.22312E+02</wgt>
<wgt id='8519'>0.22305E+02</wgt>
<wgt id='8520'>0.22386E+02</wgt>
<wgt id='8521'>0.22285E+02</wgt>
<wgt id='8522'>0.22378E+02</wgt>
<wgt id='8523'>0.22331E+02</wgt>
<wgt id='8524'>0.22369E+02</wgt>
<wgt id='8525'>0.22352E+02</wgt>
<wgt id='8526'>0.22335E+02</wgt>
<wgt id='8527'>0.22365E+02</wgt>
<wgt id='8528'>0.22314E+02</wgt>
<wgt id='8529'>0.22355E+02</wgt>
<wgt id='8530'>0.22371E+02</wgt>
<wgt id='8531'>0.22362E+02</wgt>
<wgt id='8532'>0.22375E+02</wgt>
<wgt id='8533'>0.22328E+02</wgt>
<wgt id='8534'>0.22382E+02</wgt>
<wgt id='8535'>0.22419E+02</wgt>
<wgt id='8536'>0.22355E+02</wgt>
<wgt id='8537'>0.22380E+02</wgt>
<wgt id='8538'>0.22347E+02</wgt>
<wgt id='8539'>0.22374E+02</wgt>
<wgt id='8540'>0.22376E+02</wgt>
<wgt id='8541'>0.22381E+02</wgt>
<wgt id='8542'>0.22387E+02</wgt>
<wgt id='8543'>0.22352E+02</wgt>
<wgt id='8544'>0.22394E+02</wgt>
<wgt id='8545'>0.22390E+02</wgt>
<wgt id='8546'>0.22390E+02</wgt>
<wgt id='8547'>0.22354E+02</wgt>
<wgt id='8548'>0.22348E+02</wgt>
<wgt id='8549'>0.22371E+02</wgt>
<wgt id='8550'>0.22376E+02</wgt>
<wgt id='8551'>0.22349E+02</wgt>
<wgt id='8552'>0.22376E+02</wgt>
<wgt id='8553'>0.22363E+02</wgt>
<wgt id='8554'>0.22361E+02</wgt>
<wgt id='8555'>0.22373E+02</wgt>
<wgt id='8556'>0.22370E+02</wgt>
<wgt id='8557'>0.22365E+02</wgt>
<wgt id='8558'>0.22393E+02</wgt>
<wgt id='8559'>0.22360E+02</wgt>
<wgt id='8560'>0.22348E+02</wgt>
<wgt id='8561'>0.22367E+02</wgt>
<wgt id='8562'>0.22354E+02</wgt>
<wgt id='8563'>0.22372E+02</wgt>
<wgt id='8564'>0.22367E+02</wgt>
<wgt id='8565'>0.22369E+02</wgt>
<wgt id='8566'>0.22367E+02</wgt>
<wgt id='8567'>0.22370E+02</wgt>
<wgt id='8568'>0.22378E+02</wgt>
<wgt id='8569'>0.22376E+02</wgt>
<wgt id='8570'>0.22368E+02</wgt>
<wgt id='8571'>0.22363E+02</wgt>
<wgt id='8572'>0.22365E+02</wgt>
<wgt id='8573'>0.22361E+02</wgt>
<wgt id='8574'>0.22376E+02</wgt>
<wgt id='8575'>0.22369E+02</wgt>
<wgt id='8576'>0.22369E+02</wgt>
<wgt id='8577'>0.22369E+02</wgt>
<wgt id='8578'>0.22374E+02</wgt>
<wgt id='8579'>0.22383E+02</wgt>
<wgt id='8580'>0.22370E+02</wgt>
<wgt id='8581'>0.22373E+02</wgt>
<wgt id='8582'>0.22358E+02</wgt>
<wgt id='8583'>0.22380E+02</wgt>
<wgt id='8584'>0.22376E+02</wgt>
<wgt id='8585'>0.22374E+02</wgt>
<wgt id='8586'>0.22381E+02</wgt>
<wgt id='8587'>0.22368E+02</wgt>
<wgt id='8588'>0.22366E+02</wgt>
<wgt id='8589'>0.22372E+02</wgt>
<wgt id='8590'>0.22368E+02</wgt>
<wgt id='8591'>0.22367E+02</wgt>
<wgt id='8592'>0.22370E+02</wgt>
<wgt id='8593'>0.22363E+02</wgt>
<wgt id='8594'>0.22373E+02</wgt>
<wgt id='8595'>0.22372E+02</wgt>
<wgt id='8596'>0.22365E+02</wgt>
<wgt id='8597'>0.22374E+02</wgt>
<wgt id='8598'>0.22375E+02</wgt>
<wgt id='8599'>0.22374E+02</wgt>
<wgt id='8600'>0.22371E+02</wgt>
<wgt id='8601'>0.21942E+02</wgt>
<wgt id='8602'>0.22740E+02</wgt>
<wgt id='9000'>0.21220E+02</wgt>
<wgt id='9001'>0.21261E+02</wgt>
<wgt id='9002'>0.21329E+02</wgt>
<wgt id='9003'>0.21029E+02</wgt>
<wgt id='9004'>0.21181E+02</wgt>
<wgt id='9005'>0.21336E+02</wgt>
<wgt id='9006'>0.21162E+02</wgt>
<wgt id='9007'>0.21227E+02</wgt>
<wgt id='9008'>0.21268E+02</wgt>
<wgt id='9009'>0.21210E+02</wgt>
<wgt id='9010'>0.21194E+02</wgt>
<wgt id='9011'>0.21451E+02</wgt>
<wgt id='9012'>0.20933E+02</wgt>
<wgt id='9013'>0.20942E+02</wgt>
<wgt id='9014'>0.20962E+02</wgt>
<wgt id='9015'>0.21185E+02</wgt>
<wgt id='9016'>0.21289E+02</wgt>
<wgt id='9017'>0.21236E+02</wgt>
<wgt id='9018'>0.21221E+02</wgt>
<wgt id='9019'>0.21205E+02</wgt>
<wgt id='9020'>0.21311E+02</wgt>
<wgt id='9021'>0.21218E+02</wgt>
<wgt id='9022'>0.21245E+02</wgt>
<wgt id='9023'>0.21193E+02</wgt>
<wgt id='9024'>0.21188E+02</wgt>
<wgt id='9025'>0.21243E+02</wgt>
<wgt id='9026'>0.21229E+02</wgt>
<wgt id='9027'>0.21204E+02</wgt>
<wgt id='9028'>0.21238E+02</wgt>
<wgt id='9029'>0.21242E+02</wgt>
<wgt id='9030'>0.21230E+02</wgt>
<wgt id='9031'>0.21220E+02</wgt>
<wgt id='9032'>0.21234E+02</wgt>
<wgt id='9033'>0.21247E+02</wgt>
<wgt id='9034'>0.21205E+02</wgt>
<wgt id='9035'>0.21256E+02</wgt>
<wgt id='9036'>0.21217E+02</wgt>
<wgt id='9037'>0.21242E+02</wgt>
<wgt id='9038'>0.21219E+02</wgt>
<wgt id='9039'>0.21220E+02</wgt>
<wgt id='9040'>0.21194E+02</wgt>
<wgt id='9041'>0.21208E+02</wgt>
<wgt id='9042'>0.21214E+02</wgt>
<wgt id='9043'>0.21206E+02</wgt>
<wgt id='9044'>0.21227E+02</wgt>
<wgt id='9045'>0.21215E+02</wgt>
<wgt id='9046'>0.21191E+02</wgt>
<wgt id='9047'>0.21207E+02</wgt>
<wgt id='9048'>0.21229E+02</wgt>
<wgt id='9049'>0.21209E+02</wgt>
<wgt id='9050'>0.21226E+02</wgt>
<wgt id='9051'>0.21227E+02</wgt>
<wgt id='9052'>0.21224E+02</wgt>
<wgt id='9053'>0.21224E+02</wgt>
<wgt id='9054'>0.21210E+02</wgt>
<wgt id='9055'>0.21218E+02</wgt>
<wgt id='9056'>0.21240E+02</wgt>
<wgt id='9057'>0.21218E+02</wgt>
<wgt id='9058'>0.21207E+02</wgt>
<wgt id='9059'>0.21212E+02</wgt>
<wgt id='9060'>0.21215E+02</wgt>
<wgt id='9061'>0.21224E+02</wgt>
<wgt id='9062'>0.21224E+02</wgt>
<wgt id='9063'>0.21229E+02</wgt>
<wgt id='9064'>0.21216E+02</wgt>
<wgt id='9065'>0.21220E+02</wgt>
<wgt id='9066'>0.21222E+02</wgt>
<wgt id='9067'>0.21227E+02</wgt>
<wgt id='9068'>0.21227E+02</wgt>
<wgt id='9069'>0.21231E+02</wgt>
<wgt id='9070'>0.21218E+02</wgt>
<wgt id='9071'>0.21233E+02</wgt>
<wgt id='9072'>0.21233E+02</wgt>
<wgt id='9073'>0.21214E+02</wgt>
<wgt id='9074'>0.21223E+02</wgt>
<wgt id='9075'>0.21219E+02</wgt>
<wgt id='9076'>0.21220E+02</wgt>
<wgt id='9077'>0.21223E+02</wgt>
<wgt id='9078'>0.21223E+02</wgt>
<wgt id='9079'>0.21217E+02</wgt>
<wgt id='9080'>0.21233E+02</wgt>
<wgt id='9081'>0.21219E+02</wgt>
<wgt id='9082'>0.21226E+02</wgt>
<wgt id='9083'>0.21214E+02</wgt>
<wgt id='9084'>0.21214E+02</wgt>
<wgt id='9085'>0.21216E+02</wgt>
<wgt id='9086'>0.21224E+02</wgt>
<wgt id='9087'>0.21208E+02</wgt>
<wgt id='9088'>0.21216E+02</wgt>
<wgt id='9089'>0.21215E+02</wgt>
<wgt id='9090'>0.21224E+02</wgt>
<wgt id='9091'>0.21218E+02</wgt>
<wgt id='9092'>0.21220E+02</wgt>
<wgt id='9093'>0.21217E+02</wgt>
<wgt id='9094'>0.21219E+02</wgt>
<wgt id='9095'>0.21223E+02</wgt>
<wgt id='9096'>0.21216E+02</wgt>
<wgt id='9097'>0.21222E+02</wgt>
<wgt id='9098'>0.21220E+02</wgt>
<wgt id='9099'>0.21216E+02</wgt>
<wgt id='9100'>0.21220E+02</wgt>
<wgt id='9101'>0.20899E+02</wgt>
<wgt id='9102'>0.21472E+02</wgt>
<wgt id='10000'>0.22376E+02</wgt>
<wgt id='10001'>0.22476E+02</wgt>
<wgt id='10002'>0.22394E+02</wgt>
<wgt id='10003'>0.22382E+02</wgt>
<wgt id='10004'>0.22476E+02</wgt>
<wgt id='10005'>0.23028E+02</wgt>
<wgt id='10006'>0.22383E+02</wgt>
<wgt id='10007'>0.22372E+02</wgt>
<wgt id='10008'>0.22400E+02</wgt>
<wgt id='10009'>0.22339E+02</wgt>
<wgt id='10010'>0.22378E+02</wgt>
<wgt id='10011'>0.22352E+02</wgt>
<wgt id='10012'>0.22339E+02</wgt>
<wgt id='10013'>0.22368E+02</wgt>
<wgt id='10014'>0.22390E+02</wgt>
<wgt id='10015'>0.22404E+02</wgt>
<wgt id='10016'>0.22391E+02</wgt>
<wgt id='10017'>0.22232E+02</wgt>
<wgt id='10018'>0.22396E+02</wgt>
<wgt id='10019'>0.22333E+02</wgt>
<wgt id='10020'>0.22392E+02</wgt>
<wgt id='10021'>0.22381E+02</wgt>
<wgt id='10022'>0.22370E+02</wgt>
<wgt id='10023'>0.22388E+02</wgt>
<wgt id='10024'>0.22382E+02</wgt>
<wgt id='10025'>0.22363E+02</wgt>
<wgt id='10026'>0.22368E+02</wgt>
<wgt id='10027'>0.22366E+02</wgt>
<wgt id='10028'>0.22403E+02</wgt>
<wgt id='10029'>0.22399E+02</wgt>
<wgt id='10030'>0.22367E+02</wgt>
<wgt id='10031'>0.21942E+02</wgt>
<wgt id='10032'>0.22740E+02</wgt>
<wgt id='11000'>0.21225E+02</wgt>
<wgt id='11001'>0.21255E+02</wgt>
<wgt id='11002'>0.21294E+02</wgt>
<wgt id='11003'>0.21203E+02</wgt>
<wgt id='11004'>0.21287E+02</wgt>
<wgt id='11005'>0.20935E+02</wgt>
<wgt id='11006'>0.21217E+02</wgt>
<wgt id='11007'>0.21183E+02</wgt>
<wgt id='11008'>0.21185E+02</wgt>
<wgt id='11009'>0.21123E+02</wgt>
<wgt id='11010'>0.21283E+02</wgt>
<wgt id='11011'>0.21101E+02</wgt>
<wgt id='11012'>0.21243E+02</wgt>
<wgt id='11013'>0.21311E+02</wgt>
<wgt id='11014'>0.21157E+02</wgt>
<wgt id='11015'>0.21199E+02</wgt>
<wgt id='11016'>0.21205E+02</wgt>
<wgt id='11017'>0.21402E+02</wgt>
<wgt id='11018'>0.21231E+02</wgt>
<wgt id='11019'>0.21223E+02</wgt>
<wgt id='11020'>0.21240E+02</wgt>
<wgt id='11021'>0.21299E+02</wgt>
<wgt id='11022'>0.21643E+02</wgt>
<wgt id='11023'>0.21212E+02</wgt>
<wgt id='11024'>0.21201E+02</wgt>
<wgt id='11025'>0.21163E+02</wgt>
<wgt id='11026'>0.21221E+02</wgt>
<wgt id='11027'>0.21221E+02</wgt>
<wgt id='11028'>0.21209E+02</wgt>
<wgt id='11029'>0.21209E+02</wgt>
<wgt id='11030'>0.21229E+02</wgt>
<wgt id='11031'>0.20899E+02</wgt>
<wgt id='11032'>0.21472E+02</wgt>
<wgt id='12000'>0.23843E+02</wgt>
<wgt id='12001'>0.23811E+02</wgt>
<wgt id='12002'>0.23875E+02</wgt>
<wgt id='12003'>0.23902E+02</wgt>
<wgt id='12004'>0.23784E+02</wgt>
<wgt id='12005'>0.23884E+02</wgt>
<wgt id='12006'>0.23803E+02</wgt>
<wgt id='12007'>0.23906E+02</wgt>
<wgt id='12008'>0.23782E+02</wgt>
<wgt id='12009'>0.23884E+02</wgt>
<wgt id='12010'>0.23803E+02</wgt>
<wgt id='12011'>0.23810E+02</wgt>
<wgt id='12012'>0.23880E+02</wgt>
<wgt id='12013'>0.23748E+02</wgt>
<wgt id='12014'>0.23940E+02</wgt>
<wgt id='12015'>0.23848E+02</wgt>
<wgt id='12016'>0.23805E+02</wgt>
<wgt id='12017'>0.23911E+02</wgt>
<wgt id='12018'>0.23764E+02</wgt>
<wgt id='12019'>0.23754E+02</wgt>
<wgt id='12020'>0.23929E+02</wgt>
<wgt id='12021'>0.23939E+02</wgt>
<wgt id='12022'>0.23719E+02</wgt>
<wgt id='12023'>0.23760E+02</wgt>
<wgt id='12024'>0.23805E+02</wgt>
<wgt id='12025'>0.23920E+02</wgt>
<wgt id='12026'>0.23801E+02</wgt>
<wgt id='12027'>0.23797E+02</wgt>
<wgt id='12028'>0.23909E+02</wgt>
<wgt id='12050'>0.23843E+02</wgt>
<wgt id='12051'>0.23818E+02</wgt>
<wgt id='12052'>0.23862E+02</wgt>
<wgt id='12053'>0.23812E+02</wgt>
<wgt id='12054'>0.23857E+02</wgt>
<wgt id='12055'>0.23908E+02</wgt>
<wgt id='12056'>0.23644E+02</wgt>
<wgt id='12057'>0.23746E+02</wgt>
<wgt id='12058'>0.23932E+02</wgt>
<wgt id='12059'>0.23780E+02</wgt>
<wgt id='12060'>0.23911E+02</wgt>
<wgt id='12061'>0.23848E+02</wgt>
<wgt id='12062'>0.23889E+02</wgt>
<wgt id='12063'>0.23613E+02</wgt>
<wgt id='13000'>0.21467E+02</wgt>
<wgt id='13001'>0.21451E+02</wgt>
<wgt id='13002'>0.21481E+02</wgt>
<wgt id='13003'>0.21494E+02</wgt>
<wgt id='13004'>0.21438E+02</wgt>
<wgt id='13005'>0.21519E+02</wgt>
<wgt id='13006'>0.21413E+02</wgt>
<wgt id='13007'>0.21557E+02</wgt>
<wgt id='13008'>0.21378E+02</wgt>
<wgt id='13009'>0.21475E+02</wgt>
<wgt id='13010'>0.21459E+02</wgt>
<wgt id='13011'>0.21518E+02</wgt>
<wgt id='13012'>0.21414E+02</wgt>
<wgt id='13013'>0.21400E+02</wgt>
<wgt id='13014'>0.21532E+02</wgt>
<wgt id='13015'>0.21431E+02</wgt>
<wgt id='13016'>0.21483E+02</wgt>
<wgt id='13017'>0.21452E+02</wgt>
<wgt id='13018'>0.21476E+02</wgt>
<wgt id='13019'>0.21429E+02</wgt>
<wgt id='13020'>0.21502E+02</wgt>
<wgt id='13021'>0.21282E+02</wgt>
<wgt id='13022'>0.21620E+02</wgt>
<wgt id='13023'>0.21483E+02</wgt>
<wgt id='13024'>0.21447E+02</wgt>
<wgt id='13025'>0.21429E+02</wgt>
<wgt id='13026'>0.21451E+02</wgt>
<wgt id='13027'>0.21482E+02</wgt>
<wgt id='13028'>0.21473E+02</wgt>
<wgt id='13050'>0.21468E+02</wgt>
<wgt id='13051'>0.21469E+02</wgt>
<wgt id='13052'>0.21422E+02</wgt>
<wgt id='13053'>0.21460E+02</wgt>
<wgt id='13054'>0.21459E+02</wgt>
<wgt id='13055'>0.21451E+02</wgt>
<wgt id='13056'>0.21475E+02</wgt>
<wgt id='13057'>0.21390E+02</wgt>
<wgt id='13058'>0.21579E+02</wgt>
<wgt id='13059'>0.21410E+02</wgt>
<wgt id='13060'>0.21548E+02</wgt>
<wgt id='13061'>0.21419E+02</wgt>
<wgt id='13062'>0.21621E+02</wgt>
<wgt id='13063'>0.21319E+02</wgt>
<wgt id='14000'>0.22230E+02</wgt>
<wgt id='14001'>0.22226E+02</wgt>
<wgt id='14002'>0.22223E+02</wgt>
<wgt id='14003'>0.22219E+02</wgt>
<wgt id='14004'>0.22216E+02</wgt>
<wgt id='14005'>0.22212E+02</wgt>
<wgt id='14006'>0.22208E+02</wgt>
<wgt id='14007'>0.22205E+02</wgt>
<wgt id='14008'>0.22201E+02</wgt>
<wgt id='14009'>0.22198E+02</wgt>
<wgt id='14010'>0.22194E+02</wgt>
<wgt id='14011'>0.22190E+02</wgt>
<wgt id='14012'>0.22187E+02</wgt>
<wgt id='14013'>0.22183E+02</wgt>
<wgt id='14014'>0.22179E+02</wgt>
<wgt id='14015'>0.22176E+02</wgt>
<wgt id='14016'>0.22172E+02</wgt>
<wgt id='14017'>0.22169E+02</wgt>
<wgt id='14018'>0.22165E+02</wgt>
<wgt id='14019'>0.22161E+02</wgt>
<wgt id='14020'>0.22158E+02</wgt>
<wgt id='14021'>0.22154E+02</wgt>
<wgt id='14022'>0.22151E+02</wgt>
<wgt id='14023'>0.22147E+02</wgt>
<wgt id='14024'>0.22143E+02</wgt>
<wgt id='14025'>0.22140E+02</wgt>
<wgt id='14026'>0.22136E+02</wgt>
<wgt id='14027'>0.22132E+02</wgt>
<wgt id='14028'>0.22129E+02</wgt>
<wgt id='14029'>0.22125E+02</wgt>
<wgt id='14030'>0.22122E+02</wgt>
<wgt id='15000'>0.20977E+02</wgt>
<wgt id='15001'>0.21018E+02</wgt>
<wgt id='15002'>0.21086E+02</wgt>
<wgt id='15003'>0.20785E+02</wgt>
<wgt id='15004'>0.20938E+02</wgt>
<wgt id='15005'>0.21090E+02</wgt>
<wgt id='15006'>0.20916E+02</wgt>
<wgt id='15007'>0.20982E+02</wgt>
<wgt id='15008'>0.21024E+02</wgt>
<wgt id='15009'>0.20965E+02</wgt>
<wgt id='15010'>0.20949E+02</wgt>
<wgt id='15011'>0.21203E+02</wgt>
<wgt id='15012'>0.20692E+02</wgt>
<wgt id='15013'>0.20699E+02</wgt>
<wgt id='15014'>0.20723E+02</wgt>
<wgt id='15015'>0.20947E+02</wgt>
<wgt id='15016'>0.21043E+02</wgt>
<wgt id='15017'>0.20992E+02</wgt>
<wgt id='15018'>0.20979E+02</wgt>
<wgt id='15019'>0.20960E+02</wgt>
<wgt id='15020'>0.21064E+02</wgt>
<wgt id='15021'>0.20974E+02</wgt>
<wgt id='15022'>0.21002E+02</wgt>
<wgt id='15023'>0.20947E+02</wgt>
<wgt id='15024'>0.20945E+02</wgt>
<wgt id='15025'>0.21003E+02</wgt>
<wgt id='15026'>0.20987E+02</wgt>
<wgt id='15027'>0.20958E+02</wgt>
<wgt id='15028'>0.20993E+02</wgt>
<wgt id='15029'>0.20999E+02</wgt>
<wgt id='15030'>0.20987E+02</wgt>
<wgt id='15031'>0.20973E+02</wgt>
<wgt id='15032'>0.20990E+02</wgt>
<wgt id='15033'>0.21003E+02</wgt>
<wgt id='15034'>0.20962E+02</wgt>
<wgt id='15035'>0.21013E+02</wgt>
<wgt id='15036'>0.20973E+02</wgt>
<wgt id='15037'>0.20997E+02</wgt>
<wgt id='15038'>0.20976E+02</wgt>
<wgt id='15039'>0.20977E+02</wgt>
<wgt id='15040'>0.20950E+02</wgt>
<wgt id='15041'>0.20966E+02</wgt>
<wgt id='15042'>0.20971E+02</wgt>
<wgt id='15043'>0.20961E+02</wgt>
<wgt id='15044'>0.20983E+02</wgt>
<wgt id='15045'>0.20971E+02</wgt>
<wgt id='15046'>0.20947E+02</wgt>
<wgt id='15047'>0.20964E+02</wgt>
<wgt id='15048'>0.20984E+02</wgt>
<wgt id='15049'>0.20966E+02</wgt>
<wgt id='15050'>0.20982E+02</wgt>
<wgt id='15051'>0.20983E+02</wgt>
<wgt id='15052'>0.20980E+02</wgt>
<wgt id='15053'>0.20980E+02</wgt>
<wgt id='15054'>0.20965E+02</wgt>
<wgt id='15055'>0.20974E+02</wgt>
<wgt id='15056'>0.20997E+02</wgt>
<wgt id='15057'>0.20974E+02</wgt>
<wgt id='15058'>0.20963E+02</wgt>
<wgt id='15059'>0.20968E+02</wgt>
<wgt id='15060'>0.20970E+02</wgt>
<wgt id='15061'>0.20980E+02</wgt>
<wgt id='15062'>0.20980E+02</wgt>
<wgt id='15063'>0.20986E+02</wgt>
<wgt id='15064'>0.20972E+02</wgt>
<wgt id='15065'>0.20976E+02</wgt>
<wgt id='15066'>0.20978E+02</wgt>
<wgt id='15067'>0.20983E+02</wgt>
<wgt id='15068'>0.20983E+02</wgt>
<wgt id='15069'>0.20988E+02</wgt>
<wgt id='15070'>0.20974E+02</wgt>
<wgt id='15071'>0.20989E+02</wgt>
<wgt id='15072'>0.20989E+02</wgt>
<wgt id='15073'>0.20971E+02</wgt>
<wgt id='15074'>0.20980E+02</wgt>
<wgt id='15075'>0.20975E+02</wgt>
<wgt id='15076'>0.20975E+02</wgt>
<wgt id='15077'>0.20979E+02</wgt>
<wgt id='15078'>0.20978E+02</wgt>
<wgt id='15079'>0.20973E+02</wgt>
<wgt id='15080'>0.20990E+02</wgt>
<wgt id='15081'>0.20975E+02</wgt>
<wgt id='15082'>0.20981E+02</wgt>
<wgt id='15083'>0.20970E+02</wgt>
<wgt id='15084'>0.20971E+02</wgt>
<wgt id='15085'>0.20971E+02</wgt>
<wgt id='15086'>0.20979E+02</wgt>
<wgt id='15087'>0.20964E+02</wgt>
<wgt id='15088'>0.20972E+02</wgt>
<wgt id='15089'>0.20972E+02</wgt>
<wgt id='15090'>0.20980E+02</wgt>
<wgt id='15091'>0.20974E+02</wgt>
<wgt id='15092'>0.20976E+02</wgt>
<wgt id='15093'>0.20973E+02</wgt>
<wgt id='15094'>0.20975E+02</wgt>
<wgt id='15095'>0.20979E+02</wgt>
<wgt id='15096'>0.20973E+02</wgt>
<wgt id='15097'>0.20978E+02</wgt>
<wgt id='15098'>0.20976E+02</wgt>
<wgt id='15099'>0.20972E+02</wgt>
<wgt id='15100'>0.20976E+02</wgt>
<wgt id='15101'>0.20976E+02</wgt>
<wgt id='15102'>0.20975E+02</wgt>
<wgt id='15103'>0.20977E+02</wgt>
<wgt id='15104'>0.20977E+02</wgt>
<wgt id='15105'>0.20977E+02</wgt>
<wgt id='15106'>0.20977E+02</wgt>
<wgt id='15107'>0.20975E+02</wgt>
<wgt id='1500'>0.22131E+02</wgt>
<wgt id='1501'>0.20196E+02</wgt>
<wgt id='1502'>0.22333E+02</wgt>
<wgt id='1503'>0.21979E+02</wgt>
<wgt id='1504'>0.21859E+02</wgt>
<wgt id='1505'>0.19428E+02</wgt>
<wgt id='1506'>0.22126E+02</wgt>
<wgt id='1507'>0.22515E+02</wgt>
<wgt id='1508'>0.21957E+02</wgt>
<wgt id='1509'>0.22099E+02</wgt>
<wgt id='1510'>0.21552E+02</wgt>
<wgt id='1511'>0.21893E+02</wgt>
<wgt id='1512'>0.22514E+02</wgt>
<wgt id='1513'>0.22503E+02</wgt>
<wgt id='1514'>0.21531E+02</wgt>
<wgt id='1515'>0.22102E+02</wgt>
<wgt id='1516'>0.22559E+02</wgt>
<wgt id='1517'>0.21742E+02</wgt>
<wgt id='1518'>0.21897E+02</wgt>
<wgt id='1519'>0.22322E+02</wgt>
<wgt id='1520'>0.22384E+02</wgt>
<wgt id='1521'>0.22260E+02</wgt>
<wgt id='1522'>0.22016E+02</wgt>
<wgt id='1523'>0.23880E+02</wgt>
<wgt id='1524'>0.21903E+02</wgt>
<wgt id='1525'>0.22486E+02</wgt>
<wgt id='1526'>0.21653E+02</wgt>
<wgt id='1527'>0.21937E+02</wgt>
<wgt id='1528'>0.21989E+02</wgt>
<wgt id='1529'>0.21812E+02</wgt>
<wgt id='1530'>0.22548E+02</wgt>
<wgt id='1531'>0.22035E+02</wgt>
<wgt id='1532'>0.21527E+02</wgt>
<wgt id='1533'>0.22756E+02</wgt>
<wgt id='1534'>0.22306E+02</wgt>
<wgt id='1535'>0.22871E+02</wgt>
<wgt id='1536'>0.22828E+02</wgt>
<wgt id='1537'>0.22330E+02</wgt>
<wgt id='1538'>0.21821E+02</wgt>
<wgt id='1539'>0.21253E+02</wgt>
<wgt id='1540'>0.22471E+02</wgt>
<wgt id='1541'>0.22000E+02</wgt>
<wgt id='1542'>0.22582E+02</wgt>
<wgt id='1543'>0.22406E+02</wgt>
<wgt id='1544'>0.21952E+02</wgt>
<wgt id='1545'>0.22634E+02</wgt>
<wgt id='1546'>0.22243E+02</wgt>
<wgt id='1547'>0.21739E+02</wgt>
<wgt id='1548'>0.21665E+02</wgt>
<wgt id='1549'>0.22424E+02</wgt>
<wgt id='1550'>0.22235E+02</wgt>
<wgt id='1551'>0.22144E+02</wgt>
<wgt id='1552'>0.22111E+02</wgt>
<wgt id='1553'>0.22544E+02</wgt>
<wgt id='1554'>0.22116E+02</wgt>
<wgt id='1555'>0.22212E+02</wgt>
<wgt id='1556'>0.21485E+02</wgt>
<wgt id='1557'>0.23104E+02</wgt>
<wgt id='1558'>0.21965E+02</wgt>
<wgt id='1559'>0.22423E+02</wgt>
<wgt id='1560'>0.22050E+02</wgt>
<wgt id='1561'>0.22408E+02</wgt>
<wgt id='1562'>0.22183E+02</wgt>
<wgt id='1563'>0.22562E+02</wgt>
<wgt id='1564'>0.21900E+02</wgt>
<wgt id='1565'>0.22458E+02</wgt>
<wgt id='1566'>0.22201E+02</wgt>
<wgt id='1567'>0.23196E+02</wgt>
<wgt id='1568'>0.21826E+02</wgt>
<wgt id='1569'>0.21622E+02</wgt>
<wgt id='1570'>0.22223E+02</wgt>
<wgt id='1571'>0.22744E+02</wgt>
<wgt id='1572'>0.21909E+02</wgt>
<wgt id='1573'>0.20462E+02</wgt>
<wgt id='1574'>0.22351E+02</wgt>
<wgt id='1575'>0.21895E+02</wgt>
<wgt id='1576'>0.21522E+02</wgt>
<wgt id='1577'>0.22312E+02</wgt>
<wgt id='1578'>0.23034E+02</wgt>
<wgt id='1579'>0.22030E+02</wgt>
<wgt id='1580'>0.22333E+02</wgt>
<wgt id='1581'>0.22274E+02</wgt>
<wgt id='1582'>0.21873E+02</wgt>
<wgt id='1583'>0.22119E+02</wgt>
<wgt id='1584'>0.22225E+02</wgt>
<wgt id='1585'>0.21485E+02</wgt>
<wgt id='1586'>0.22072E+02</wgt>
<wgt id='1587'>0.22085E+02</wgt>
<wgt id='1588'>0.22181E+02</wgt>
<wgt id='1589'>0.22523E+02</wgt>
<wgt id='1590'>0.22061E+02</wgt>
<wgt id='1591'>0.21392E+02</wgt>
<wgt id='1592'>0.22768E+02</wgt>
<wgt id='1593'>0.21924E+02</wgt>
<wgt id='1594'>0.22712E+02</wgt>
<wgt id='1595'>0.21761E+02</wgt>
<wgt id='1596'>0.22466E+02</wgt>
<wgt id='1597'>0.22264E+02</wgt>
<wgt id='1598'>0.23151E+02</wgt>
<wgt id='1599'>0.22754E+02</wgt>
<wgt id='1600'>0.21960E+02</wgt>
<wgt id='1601'>0.21759E+02</wgt>
<wgt id='1602'>0.22289E+02</wgt>
<wgt id='1700'>0.21298E+02</wgt>
<wgt id='1800'>0.26093E+02</wgt>
<wgt id='1850'>0.31338E+02</wgt>
<wgt id='1900'>0.25445E+02</wgt>
<wgt id='1950'>0.30206E+02</wgt>
</rwgt>
</event>
<event>
      4   9999  2.16956E+01  9.53100E+01 -1.00000E+00  1.23163E-01
      21    -1     0     0   512   501  0.000000000E+00  0.000000000E+00  3.168117914E+02  3.168117914E+02  0.000000000E+00  0.00000E+00  9.000E+00
      21    -1     0     0   501   502  0.000000000E+00  0.000000000E+00 -7.433354542E+01  7.433354542E+01  0.000000000E+00  0.00000E+00  9.000E+00
      25     1     1     2     0     0  1.683945358E+01 -9.381063964E+01  3.245242549E+01  1.605052523E+02  1.249990912E+02  0.00000E+00  9.000E+00
      21     1     1     2   512   502 -1.683945358E+01  9.381063964E+01  2.100258204E+02  2.306400845E+02  2.697398305E-06  0.00000E+00  9.000E+00
#rwgt            1           1   18.596667462898214                1        4498           0
<rwgt>
<wgt id='1001'>0.21696E+02</wgt>
<wgt id='1002'>0.23757E+02</wgt>
<wgt id='1003'>0.19482E+02</wgt>
<wgt id='1004'>0.18510E+02</wgt>
<wgt id='1005'>0.20167E+02</wgt>
<wgt id='1006'>0.16700E+02</wgt>
<wgt id='1007'>0.25773E+02</wgt>
<wgt id='1008'>0.28406E+02</wgt>
<wgt id='1009'>0.23001E+02</wgt>
<wgt id='2000'>0.21696E+02</wgt>
<wgt id='2001'>0.21673E+02</wgt>
<wgt id='2002'>0.21792E+02</wgt>
<wgt id='2003'>0.21787E+02</wgt>
<wgt id='2004'>0.21723E+02</wgt>
<wgt id='2005'>0.21636E+02</wgt>
<wgt id='2006'>0.21628E+02</wgt>
<wgt id='2007'>0.21599E+02</wgt>
<wgt id='2008'>0.21651E+02</wgt>
<wgt id='2009'>0.21721E+02</wgt>
<wgt id='2010'>0.21678E+02</wgt>
<wgt id='2011'>0.21808E+02</wgt>
<wgt id='2012'>0.21824E+02</wgt>
<wgt id='2013'>0.21909E+02</wgt>
<wgt id='2014'>0.21779E+02</wgt>
<wgt id='2015'>0.21742E+02</wgt>
<wgt id='2016'>0.21636E+02</wgt>
<wgt id='2017'>0.21694E+02</wgt>
<wgt id='2018'>0.21784E+02</wgt>
<wgt id='2019'>0.21684E+02</wgt>
<wgt id='2020'>0.21750E+02</wgt>
<wgt id='2021'>0.21667E+02</wgt>
<wgt id='2022'>0.21697E+02</wgt>
<wgt id='2023'>0.21708E+02</wgt>
<wgt id='2024'>0.21710E+02</wgt>
<wgt id='2025'>0.21686E+02</wgt>
<wgt id='2026'>0.21690E+02</wgt>
<wgt id='2027'>0.21688E+02</wgt>
<wgt id='2028'>0.21692E+02</wgt>
<wgt id='2029'>0.21716E+02</wgt>
<wgt id='2030'>0.21702E+02</wgt>
<wgt id='2031'>0.21705E+02</wgt>
<wgt id='2032'>0.21690E+02</wgt>
<wgt id='2033'>0.21698E+02</wgt>
<wgt id='2034'>0.21711E+02</wgt>
<wgt id='2035'>0.21692E+02</wgt>
<wgt id='2036'>0.21702E+02</wgt>
<wgt id='2037'>0.21702E+02</wgt>
<wgt id='2038'>0.21695E+02</wgt>
<wgt id='2039'>0.21686E+02</wgt>
<wgt id='2040'>0.21702E+02</wgt>
<wgt id='2041'>0.21699E+02</wgt>
<wgt id='2042'>0.21689E+02</wgt>
<wgt id='2043'>0.21699E+02</wgt>
<wgt id='2044'>0.21702E+02</wgt>
<wgt id='2045'>0.21696E+02</wgt>
<wgt id='2046'>0.21701E+02</wgt>
<wgt id='2047'>0.21705E+02</wgt>
<wgt id='2048'>0.21695E+02</wgt>
<wgt id='2049'>0.21695E+02</wgt>
<wgt id='2050'>0.21700E+02</wgt>
<wgt id='2051'>0.21703E+02</wgt>
<wgt id='2052'>0.21693E+02</wgt>
<wgt id='2053'>0.21694E+02</wgt>
<wgt id='2054'>0.21694E+02</wgt>
<wgt id='2055'>0.21698E+02</wgt>
<wgt id='2056'>0.21695E+02</wgt>
<wgt id='2057'>0.21695E+02</wgt>
<wgt id='2058'>0.21698E+02</wgt>
<wgt id='2059'>0.21694E+02</wgt>
<wgt id='2060'>0.21696E+02</wgt>
<wgt id='2061'>0.21692E+02</wgt>
<wgt id='2062'>0.21696E+02</wgt>
<wgt id='2063'>0.21695E+02</wgt>
<wgt id='2064'>0.21692E+02</wgt>
<wgt id='2065'>0.21701E+02</wgt>
<wgt id='2066'>0.21694E+02</wgt>
<wgt id='2067'>0.21696E+02</wgt>
<wgt id='2068'>0.21699E+02</wgt>
<wgt id='2069'>0.21695E+02</wgt>
<wgt id='2070'>0.21695E+02</wgt>
<wgt id='2071'>0.21691E+02</wgt>
<wgt id='2072'>0.21698E+02</wgt>
<wgt id='2073'>0.21698E+02</wgt>
<wgt id='2074'>0.21694E+02</wgt>
<wgt id='2075'>0.21694E+02</wgt>
<wgt id='2076'>0.21695E+02</wgt>
<wgt id='2077'>0.21693E+02</wgt>
<wgt id='2078'>0.21694E+02</wgt>
<wgt id='2079'>0.21697E+02</wgt>
<wgt id='2080'>0.21696E+02</wgt>
<wgt id='2081'>0.21697E+02</wgt>
<wgt id='2082'>0.21697E+02</wgt>
<wgt id='2083'>0.21696E+02</wgt>
<wgt id='2084'>0.21695E+02</wgt>
<wgt id='2085'>0.21694E+02</wgt>
<wgt id='2086'>0.21695E+02</wgt>
<wgt id='2087'>0.21695E+02</wgt>
<wgt id='2088'>0.21695E+02</wgt>
<wgt id='2089'>0.21695E+02</wgt>
<wgt id='2090'>0.21697E+02</wgt>
<wgt id='2091'>0.21694E+02</wgt>
<wgt id='2092'>0.21696E+02</wgt>
<wgt id='2093'>0.21696E+02</wgt>
<wgt id='2094'>0.21697E+02</wgt>
<wgt id='2095'>0.21696E+02</wgt>
<wgt id='2096'>0.21695E+02</wgt>
<wgt id='2097'>0.21696E+02</wgt>
<wgt id='2098'>0.21695E+02</wgt>
<wgt id='2099'>0.21696E+02</wgt>
<wgt id='2100'>0.21696E+02</wgt>
<wgt id='2101'>0.21160E+02</wgt>
<wgt id='2102'>0.22154E+02</wgt>
<wgt id='2104'>0.19258E+02</wgt>
<wgt id='2105'>0.19662E+02</wgt>
<wgt id='2106'>0.20151E+02</wgt>
<wgt id='2107'>0.20710E+02</wgt>
<wgt id='2108'>0.21494E+02</wgt>
<wgt id='2109'>0.21989E+02</wgt>
<wgt id='2110'>0.22622E+02</wgt>
<wgt id='2111'>0.23117E+02</wgt>
<wgt id='3000'>0.22610E+02</wgt>
<wgt id='3001'>0.22695E+02</wgt>
<wgt id='3002'>0.22513E+02</wgt>
<wgt id='3003'>0.22702E+02</wgt>
<wgt id='3004'>0.22661E+02</wgt>
<wgt id='3005'>0.22726E+02</wgt>
<wgt id='3006'>0.22646E+02</wgt>
<wgt id='3007'>0.22664E+02</wgt>
<wgt id='3008'>0.22536E+02</wgt>
<wgt id='3009'>0.22586E+02</wgt>
<wgt id='3010'>0.22517E+02</wgt>
<wgt id='3011'>0.22666E+02</wgt>
<wgt id='3012'>0.22786E+02</wgt>
<wgt id='3013'>0.22410E+02</wgt>
<wgt id='3014'>0.22709E+02</wgt>
<wgt id='3015'>0.22706E+02</wgt>
<wgt id='3016'>0.22619E+02</wgt>
<wgt id='3017'>0.22716E+02</wgt>
<wgt id='3018'>0.22631E+02</wgt>
<wgt id='3019'>0.22533E+02</wgt>
<wgt id='3020'>0.22609E+02</wgt>
<wgt id='3021'>0.22564E+02</wgt>
<wgt id='3022'>0.22606E+02</wgt>
<wgt id='3023'>0.22596E+02</wgt>
<wgt id='3024'>0.22624E+02</wgt>
<wgt id='3025'>0.22616E+02</wgt>
<wgt id='3026'>0.22604E+02</wgt>
<wgt id='3027'>0.22619E+02</wgt>
<wgt id='3028'>0.22609E+02</wgt>
<wgt id='3029'>0.22613E+02</wgt>
<wgt id='3030'>0.22630E+02</wgt>
<wgt id='3031'>0.22617E+02</wgt>
<wgt id='3032'>0.22607E+02</wgt>
<wgt id='3033'>0.22617E+02</wgt>
<wgt id='3034'>0.22609E+02</wgt>
<wgt id='3035'>0.22629E+02</wgt>
<wgt id='3036'>0.22617E+02</wgt>
<wgt id='3037'>0.22611E+02</wgt>
<wgt id='3038'>0.22611E+02</wgt>
<wgt id='3039'>0.22601E+02</wgt>
<wgt id='3040'>0.22608E+02</wgt>
<wgt id='3041'>0.22616E+02</wgt>
<wgt id='3042'>0.22604E+02</wgt>
<wgt id='3043'>0.22605E+02</wgt>
<wgt id='3044'>0.22609E+02</wgt>
<wgt id='3045'>0.22617E+02</wgt>
<wgt id='3046'>0.22617E+02</wgt>
<wgt id='3047'>0.22607E+02</wgt>
<wgt id='3048'>0.22614E+02</wgt>
<wgt id='3049'>0.22609E+02</wgt>
<wgt id='3050'>0.22608E+02</wgt>
<wgt id='3051'>0.22620E+02</wgt>
<wgt id='3052'>0.22606E+02</wgt>
<wgt id='3053'>0.22607E+02</wgt>
<wgt id='3054'>0.22606E+02</wgt>
<wgt id='3055'>0.22604E+02</wgt>
<wgt id='3056'>0.22611E+02</wgt>
<wgt id='3057'>0.22604E+02</wgt>
<wgt id='3058'>0.22606E+02</wgt>
<wgt id='3059'>0.22608E+02</wgt>
<wgt id='3060'>0.22610E+02</wgt>
<wgt id='3061'>0.22611E+02</wgt>
<wgt id='3062'>0.22612E+02</wgt>
<wgt id='3063'>0.22616E+02</wgt>
<wgt id='3064'>0.22609E+02</wgt>
<wgt id='3065'>0.22612E+02</wgt>
<wgt id='3066'>0.22612E+02</wgt>
<wgt id='3067'>0.22606E+02</wgt>
<wgt id='3068'>0.22609E+02</wgt>
<wgt id='3069'>0.22606E+02</wgt>
<wgt id='3070'>0.22608E+02</wgt>
<wgt id='3071'>0.22610E+02</wgt>
<wgt id='3072'>0.22613E+02</wgt>
<wgt id='3073'>0.22607E+02</wgt>
<wgt id='3074'>0.22613E+02</wgt>
<wgt id='3075'>0.22612E+02</wgt>
<wgt id='3076'>0.22608E+02</wgt>
<wgt id='3077'>0.22608E+02</wgt>
<wgt id='3078'>0.22612E+02</wgt>
<wgt id='3079'>0.22609E+02</wgt>
<wgt id='3080'>0.22609E+02</wgt>
<wgt id='3081'>0.22610E+02</wgt>
<wgt id='3082'>0.22609E+02</wgt>
<wgt id='3083'>0.22609E+02</wgt>
<wgt id='3084'>0.22608E+02</wgt>
<wgt id='3085'>0.22609E+02</wgt>
<wgt id='3086'>0.22609E+02</wgt>
<wgt id='3087'>0.22608E+02</wgt>
<wgt id='3088'>0.22609E+02</wgt>
<wgt id='3089'>0.22610E+02</wgt>
<wgt id='3090'>0.22610E+02</wgt>
<wgt id='3091'>0.22611E+02</wgt>
<wgt id='3092'>0.22610E+02</wgt>
<wgt id='3093'>0.22609E+02</wgt>
<wgt id='3094'>0.22611E+02</wgt>
<wgt id='3095'>0.22610E+02</wgt>
<wgt id='3096'>0.22610E+02</wgt>
<wgt id='3097'>0.22607E+02</wgt>
<wgt id='3098'>0.22610E+02</wgt>
<wgt id='3099'>0.22610E+02</wgt>
<wgt id='3100'>0.22610E+02</wgt>
<wgt id='3101'>0.22083E+02</wgt>
<wgt id='3102'>0.23221E+02</wgt>
<wgt id='5000'>0.21127E+02</wgt>
<wgt id='5001'>0.21034E+02</wgt>
<wgt id='5002'>0.21092E+02</wgt>
<wgt id='5003'>0.20976E+02</wgt>
<wgt id='5004'>0.21182E+02</wgt>
<wgt id='5005'>0.20623E+02</wgt>
<wgt id='5006'>0.21496E+02</wgt>
<wgt id='5007'>0.21261E+02</wgt>
<wgt id='5008'>0.20837E+02</wgt>
<wgt id='5009'>0.21400E+02</wgt>
<wgt id='5010'>0.20979E+02</wgt>
<wgt id='5011'>0.21083E+02</wgt>
<wgt id='5012'>0.21114E+02</wgt>
<wgt id='5013'>0.20676E+02</wgt>
<wgt id='5014'>0.21118E+02</wgt>
<wgt id='5015'>0.21293E+02</wgt>
<wgt id='5016'>0.20618E+02</wgt>
<wgt id='5017'>0.21186E+02</wgt>
<wgt id='5018'>0.21062E+02</wgt>
<wgt id='5019'>0.21037E+02</wgt>
<wgt id='5020'>0.21195E+02</wgt>
<wgt id='5021'>0.21202E+02</wgt>
<wgt id='5022'>0.21078E+02</wgt>
<wgt id='5023'>0.21082E+02</wgt>
<wgt id='5024'>0.21170E+02</wgt>
<wgt id='5025'>0.21097E+02</wgt>
<wgt id='5026'>0.21151E+02</wgt>
<wgt id='5027'>0.21354E+02</wgt>
<wgt id='5028'>0.20744E+02</wgt>
<wgt id='5029'>0.20719E+02</wgt>
<wgt id='5030'>0.21371E+02</wgt>
<wgt id='5031'>0.20881E+02</wgt>
<wgt id='5032'>0.21482E+02</wgt>
<wgt id='5033'>0.20955E+02</wgt>
<wgt id='5034'>0.21274E+02</wgt>
<wgt id='5035'>0.20787E+02</wgt>
<wgt id='5036'>0.21400E+02</wgt>
<wgt id='5037'>0.21121E+02</wgt>
<wgt id='5038'>0.21121E+02</wgt>
<wgt id='5039'>0.21481E+02</wgt>
<wgt id='5040'>0.20945E+02</wgt>
<wgt id='5041'>0.20867E+02</wgt>
<wgt id='5042'>0.21175E+02</wgt>
<wgt id='5043'>0.21363E+02</wgt>
<wgt id='5044'>0.20535E+02</wgt>
<wgt id='5045'>0.21787E+02</wgt>
<wgt id='5046'>0.20931E+02</wgt>
<wgt id='5047'>0.21284E+02</wgt>
<wgt id='5048'>0.21217E+02</wgt>
<wgt id='5049'>0.21147E+02</wgt>
<wgt id='5050'>0.21166E+02</wgt>
<wgt id='5051'>0.21194E+02</wgt>
<wgt id='5052'>0.21106E+02</wgt>
<wgt id='5053'>0.20963E+02</wgt>
<wgt id='5054'>0.21683E+02</wgt>
<wgt id='5055'>0.20990E+02</wgt>
<wgt id='5056'>0.21240E+02</wgt>
<wgt id='5060'>0.20672E+02</wgt>
<wgt id='5070'>0.21506E+02</wgt>
<wgt id='4000'>0.22283E+02</wgt>
<wgt id='4001'>0.22309E+02</wgt>
<wgt id='4002'>0.22359E+02</wgt>
<wgt id='4003'>0.22862E+02</wgt>
<wgt id='4004'>0.22021E+02</wgt>
<wgt id='4005'>0.22372E+02</wgt>
<wgt id='4006'>0.22213E+02</wgt>
<wgt id='4007'>0.22560E+02</wgt>
<wgt id='4008'>0.22159E+02</wgt>
<wgt id='4009'>0.21781E+02</wgt>
<wgt id='4010'>0.22686E+02</wgt>
<wgt id='4011'>0.22634E+02</wgt>
<wgt id='4012'>0.22084E+02</wgt>
<wgt id='4013'>0.21416E+02</wgt>
<wgt id='4014'>0.22784E+02</wgt>
<wgt id='4015'>0.22469E+02</wgt>
<wgt id='4016'>0.22160E+02</wgt>
<wgt id='4017'>0.22080E+02</wgt>
<wgt id='4018'>0.22525E+02</wgt>
<wgt id='4019'>0.22578E+02</wgt>
<wgt id='4020'>0.21952E+02</wgt>
<wgt id='4021'>0.22342E+02</wgt>
<wgt id='4022'>0.22156E+02</wgt>
<wgt id='4023'>0.22163E+02</wgt>
<wgt id='4024'>0.22391E+02</wgt>
<wgt id='4025'>0.21939E+02</wgt>
<wgt id='4026'>0.22598E+02</wgt>
<wgt id='4027'>0.22203E+02</wgt>
<wgt id='4028'>0.22392E+02</wgt>
<wgt id='4029'>0.22111E+02</wgt>
<wgt id='4030'>0.22343E+02</wgt>
<wgt id='4031'>0.22317E+02</wgt>
<wgt id='4032'>0.22239E+02</wgt>
<wgt id='4033'>0.22273E+02</wgt>
<wgt id='4034'>0.22300E+02</wgt>
<wgt id='4035'>0.22634E+02</wgt>
<wgt id='4036'>0.21946E+02</wgt>
<wgt id='4037'>0.22481E+02</wgt>
<wgt id='4038'>0.21953E+02</wgt>
<wgt id='4039'>0.22273E+02</wgt>
<wgt id='4040'>0.22246E+02</wgt>
<wgt id='4041'>0.22481E+02</wgt>
<wgt id='4042'>0.22099E+02</wgt>
<wgt id='4043'>0.22494E+02</wgt>
<wgt id='4044'>0.22037E+02</wgt>
<wgt id='4045'>0.22024E+02</wgt>
<wgt id='4046'>0.22162E+02</wgt>
<wgt id='4047'>0.21961E+02</wgt>
<wgt id='4048'>0.22560E+02</wgt>
<wgt id='4049'>0.22417E+02</wgt>
<wgt id='4050'>0.21799E+02</wgt>
<wgt id='4051'>0.22235E+02</wgt>
<wgt id='4052'>0.22219E+02</wgt>
<wgt id='4053'>0.21695E+02</wgt>
<wgt id='4054'>0.22452E+02</wgt>
<wgt id='4055'>0.22097E+02</wgt>
<wgt id='4056'>0.22450E+02</wgt>
<wgt id='4060'>0.21717E+02</wgt>
<wgt id='4070'>0.22795E+02</wgt>
<wgt id='4080'>0.21806E+02</wgt>
<wgt id='6000'>0.22669E+02</wgt>
<wgt id='6001'>0.22673E+02</wgt>
<wgt id='6002'>0.22664E+02</wgt>
<wgt id='6003'>0.22678E+02</wgt>
<wgt id='6004'>0.22663E+02</wgt>
<wgt id='6005'>0.22734E+02</wgt>
<wgt id='6006'>0.22608E+02</wgt>
<wgt id='6007'>0.22568E+02</wgt>
<wgt id='6008'>0.22781E+02</wgt>
<wgt id='6009'>0.22733E+02</wgt>
<wgt id='6010'>0.22606E+02</wgt>
<wgt id='6011'>0.22715E+02</wgt>
<wgt id='6012'>0.22567E+02</wgt>
<wgt id='6013'>0.22646E+02</wgt>
<wgt id='6014'>0.22709E+02</wgt>
<wgt id='6015'>0.22596E+02</wgt>
<wgt id='6016'>0.22710E+02</wgt>
<wgt id='6017'>0.22547E+02</wgt>
<wgt id='6018'>0.22813E+02</wgt>
<wgt id='6019'>0.22710E+02</wgt>
<wgt id='6020'>0.22633E+02</wgt>
<wgt id='6021'>0.22619E+02</wgt>
<wgt id='6022'>0.22736E+02</wgt>
<wgt id='6023'>0.22512E+02</wgt>
<wgt id='6024'>0.22779E+02</wgt>
<wgt id='6025'>0.22379E+02</wgt>
<wgt id='6026'>0.22932E+02</wgt>
<wgt id='6027'>0.22726E+02</wgt>
<wgt id='6028'>0.22669E+02</wgt>
<wgt id='6029'>0.22815E+02</wgt>
<wgt id='6030'>0.22500E+02</wgt>
<wgt id='6031'>0.22700E+02</wgt>
<wgt id='6032'>0.22627E+02</wgt>
<wgt id='6033'>0.22711E+02</wgt>
<wgt id='6034'>0.22624E+02</wgt>
<wgt id='6035'>0.22652E+02</wgt>
<wgt id='6036'>0.22749E+02</wgt>
<wgt id='6037'>0.22711E+02</wgt>
<wgt id='6038'>0.22663E+02</wgt>
<wgt id='6039'>0.22651E+02</wgt>
<wgt id='6040'>0.22689E+02</wgt>
<wgt id='6041'>0.22622E+02</wgt>
<wgt id='6042'>0.22726E+02</wgt>
<wgt id='6043'>0.22949E+02</wgt>
<wgt id='6044'>0.22524E+02</wgt>
<wgt id='6045'>0.22650E+02</wgt>
<wgt id='6046'>0.22718E+02</wgt>
<wgt id='6047'>0.22591E+02</wgt>
<wgt id='6048'>0.22558E+02</wgt>
<wgt id='6049'>0.22633E+02</wgt>
<wgt id='6050'>0.22672E+02</wgt>
<wgt id='7000'>0.21267E+02</wgt>
<wgt id='7001'>0.21254E+02</wgt>
<wgt id='7002'>0.21283E+02</wgt>
<wgt id='7003'>0.21334E+02</wgt>
<wgt id='7004'>0.21201E+02</wgt>
<wgt id='7005'>0.21307E+02</wgt>
<wgt id='7006'>0.21251E+02</wgt>
<wgt id='7007'>0.21181E+02</wgt>
<wgt id='7008'>0.21353E+02</wgt>
<wgt id='7009'>0.21300E+02</wgt>
<wgt id='7010'>0.21235E+02</wgt>
<wgt id='7011'>0.21074E+02</wgt>
<wgt id='7012'>0.21351E+02</wgt>
<wgt id='7013'>0.21269E+02</wgt>
<wgt id='7014'>0.21264E+02</wgt>
<wgt id='7015'>0.21209E+02</wgt>
<wgt id='7016'>0.21329E+02</wgt>
<wgt id='7017'>0.21233E+02</wgt>
<wgt id='7018'>0.21284E+02</wgt>
<wgt id='7019'>0.21238E+02</wgt>
<wgt id='7020'>0.21307E+02</wgt>
<wgt id='7021'>0.21260E+02</wgt>
<wgt id='7022'>0.21271E+02</wgt>
<wgt id='7023'>0.21517E+02</wgt>
<wgt id='7024'>0.21026E+02</wgt>
<wgt id='7025'>0.21363E+02</wgt>
<wgt id='7026'>0.21031E+02</wgt>
<wgt id='7027'>0.21360E+02</wgt>
<wgt id='7028'>0.21222E+02</wgt>
<wgt id='7029'>0.21165E+02</wgt>
<wgt id='7030'>0.21537E+02</wgt>
<wgt id='7031'>0.21267E+02</wgt>
<wgt id='7032'>0.21273E+02</wgt>
<wgt id='7033'>0.21236E+02</wgt>
<wgt id='7034'>0.21337E+02</wgt>
<wgt id='7035'>0.21325E+02</wgt>
<wgt id='7036'>0.21250E+02</wgt>
<wgt id='7037'>0.21277E+02</wgt>
<wgt id='7038'>0.21266E+02</wgt>
<wgt id='7039'>0.21250E+02</wgt>
<wgt id='7040'>0.21279E+02</wgt>
<wgt id='7041'>0.21227E+02</wgt>
<wgt id='7042'>0.21288E+02</wgt>
<wgt id='7043'>0.21286E+02</wgt>
<wgt id='7044'>0.21158E+02</wgt>
<wgt id='7045'>0.21096E+02</wgt>
<wgt id='7046'>0.21298E+02</wgt>
<wgt id='7047'>0.21271E+02</wgt>
<wgt id='7048'>0.21255E+02</wgt>
<wgt id='7049'>0.21251E+02</wgt>
<wgt id='7050'>0.21204E+02</wgt>
<wgt id='7060'>0.32305E+02</wgt>
<wgt id='8000'>0.21513E+02</wgt>
<wgt id='8001'>0.21507E+02</wgt>
<wgt id='8002'>0.21520E+02</wgt>
<wgt id='8003'>0.21516E+02</wgt>
<wgt id='8004'>0.21513E+02</wgt>
<wgt id='8005'>0.21463E+02</wgt>
<wgt id='8006'>0.21499E+02</wgt>
<wgt id='8007'>0.21485E+02</wgt>
<wgt id='8008'>0.21551E+02</wgt>
<wgt id='8009'>0.21591E+02</wgt>
<wgt id='8010'>0.21513E+02</wgt>
<wgt id='8011'>0.21502E+02</wgt>
<wgt id='8012'>0.21489E+02</wgt>
<wgt id='8013'>0.21510E+02</wgt>
<wgt id='8014'>0.21499E+02</wgt>
<wgt id='8015'>0.21498E+02</wgt>
<wgt id='8016'>0.21518E+02</wgt>
<wgt id='8017'>0.21513E+02</wgt>
<wgt id='8018'>0.21509E+02</wgt>
<wgt id='8019'>0.21553E+02</wgt>
<wgt id='8020'>0.21438E+02</wgt>
<wgt id='8021'>0.21516E+02</wgt>
<wgt id='8022'>0.21375E+02</wgt>
<wgt id='8023'>0.21541E+02</wgt>
<wgt id='8024'>0.21566E+02</wgt>
<wgt id='8025'>0.21594E+02</wgt>
<wgt id='8026'>0.21559E+02</wgt>
<wgt id='8027'>0.21474E+02</wgt>
<wgt id='8028'>0.21534E+02</wgt>
<wgt id='8029'>0.21365E+02</wgt>
<wgt id='8500'>0.22364E+02</wgt>
<wgt id='8501'>0.22322E+02</wgt>
<wgt id='8502'>0.22594E+02</wgt>
<wgt id='8503'>0.22525E+02</wgt>
<wgt id='8504'>0.22308E+02</wgt>
<wgt id='8505'>0.22251E+02</wgt>
<wgt id='8506'>0.22299E+02</wgt>
<wgt id='8507'>0.22503E+02</wgt>
<wgt id='8508'>0.22711E+02</wgt>
<wgt id='8509'>0.22211E+02</wgt>
<wgt id='8510'>0.22696E+02</wgt>
<wgt id='8511'>0.22379E+02</wgt>
<wgt id='8512'>0.22097E+02</wgt>
<wgt id='8513'>0.22398E+02</wgt>
<wgt id='8514'>0.22281E+02</wgt>
<wgt id='8515'>0.22366E+02</wgt>
<wgt id='8516'>0.22436E+02</wgt>
<wgt id='8517'>0.22335E+02</wgt>
<wgt id='8518'>0.22303E+02</wgt>
<wgt id='8519'>0.22299E+02</wgt>
<wgt id='8520'>0.22382E+02</wgt>
<wgt id='8521'>0.22276E+02</wgt>
<wgt id='8522'>0.22374E+02</wgt>
<wgt id='8523'>0.22327E+02</wgt>
<wgt id='8524'>0.22364E+02</wgt>
<wgt id='8525'>0.22343E+02</wgt>
<wgt id='8526'>0.22329E+02</wgt>
<wgt id='8527'>0.22360E+02</wgt>
<wgt id='8528'>0.22308E+02</wgt>
<wgt id='8529'>0.22350E+02</wgt>
<wgt id='8530'>0.22366E+02</wgt>
<wgt id='8531'>0.22356E+02</wgt>
<wgt id='8532'>0.22369E+02</wgt>
<wgt id='8533'>0.22320E+02</wgt>
<wgt id='8534'>0.22375E+02</wgt>
<wgt id='8535'>0.22414E+02</wgt>
<wgt id='8536'>0.22349E+02</wgt>
<wgt id='8537'>0.22373E+02</wgt>
<wgt id='8538'>0.22341E+02</wgt>
<wgt id='8539'>0.22368E+02</wgt>
<wgt id='8540'>0.22370E+02</wgt>
<wgt id='8541'>0.22375E+02</wgt>
<wgt id='8542'>0.22381E+02</wgt>
<wgt id='8543'>0.22345E+02</wgt>
<wgt id='8544'>0.22388E+02</wgt>
<wgt id='8545'>0.22383E+02</wgt>
<wgt id='8546'>0.22385E+02</wgt>
<wgt id='8547'>0.22346E+02</wgt>
<wgt id='8548'>0.22342E+02</wgt>
<wgt id='8549'>0.22365E+02</wgt>
<wgt id='8550'>0.22369E+02</wgt>
<wgt id='8551'>0.22343E+02</wgt>
<wgt id='8552'>0.22369E+02</wgt>
<wgt id='8553'>0.22356E+02</wgt>
<wgt id='8554'>0.22354E+02</wgt>
<wgt id='8555'>0.22367E+02</wgt>
<wgt id='8556'>0.22363E+02</wgt>
<wgt id='8557'>0.22359E+02</wgt>
<wgt id='8558'>0.22388E+02</wgt>
<wgt id='8559'>0.22354E+02</wgt>
<wgt id='8560'>0.22341E+02</wgt>
<wgt id='8561'>0.22362E+02</wgt>
<wgt id='8562'>0.22348E+02</wgt>
<wgt id='8563'>0.22365E+02</wgt>
<wgt id='8564'>0.22361E+02</wgt>
<wgt id='8565'>0.22363E+02</wgt>
<wgt id='8566'>0.22361E+02</wgt>
<wgt id='8567'>0.22363E+02</wgt>
<wgt id='8568'>0.22372E+02</wgt>
<wgt id='8569'>0.22370E+02</wgt>
<wgt id='8570'>0.22362E+02</wgt>
<wgt id='8571'>0.22356E+02</wgt>
<wgt id='8572'>0.22358E+02</wgt>
<wgt id='8573'>0.22355E+02</wgt>
<wgt id='8574'>0.22369E+02</wgt>
<wgt id='8575'>0.22362E+02</wgt>
<wgt id='8576'>0.22363E+02</wgt>
<wgt id='8577'>0.22363E+02</wgt>
<wgt id='8578'>0.22367E+02</wgt>
<wgt id='8579'>0.22377E+02</wgt>
<wgt id='8580'>0.22364E+02</wgt>
<wgt id='8581'>0.22368E+02</wgt>
<wgt id='8582'>0.22352E+02</wgt>
<wgt id='8583'>0.22373E+02</wgt>
<wgt id='8584'>0.22369E+02</wgt>
<wgt id='8585'>0.22368E+02</wgt>
<wgt id='8586'>0.22374E+02</wgt>
<wgt id='8587'>0.22362E+02</wgt>
<wgt id='8588'>0.22360E+02</wgt>
<wgt id='8589'>0.22366E+02</wgt>
<wgt id='8590'>0.22362E+02</wgt>
<wgt id='8591'>0.22361E+02</wgt>
<wgt id='8592'>0.22364E+02</wgt>
<wgt id='8593'>0.22357E+02</wgt>
<wgt id='8594'>0.22367E+02</wgt>
<wgt id='8595'>0.22366E+02</wgt>
<wgt id='8596'>0.22359E+02</wgt>
<wgt id='8597'>0.22367E+02</wgt>
<wgt id='8598'>0.22369E+02</wgt>
<wgt id='8599'>0.22367E+02</wgt>
<wgt id='8600'>0.22364E+02</wgt>
<wgt id='8601'>0.21953E+02</wgt>
<wgt id='8602'>0.22716E+02</wgt>
<wgt id='9000'>0.21240E+02</wgt>
<wgt id='9001'>0.21280E+02</wgt>
<wgt id='9002'>0.21351E+02</wgt>
<wgt id='9003'>0.21046E+02</wgt>
<wgt id='9004'>0.21200E+02</wgt>
<wgt id='9005'>0.21354E+02</wgt>
<wgt id='9006'>0.21177E+02</wgt>
<wgt id='9007'>0.21240E+02</wgt>
<wgt id='9008'>0.21285E+02</wgt>
<wgt id='9009'>0.21228E+02</wgt>
<wgt id='9010'>0.21210E+02</wgt>
<wgt id='9011'>0.21470E+02</wgt>
<wgt id='9012'>0.20959E+02</wgt>
<wgt id='9013'>0.20956E+02</wgt>
<wgt id='9014'>0.20983E+02</wgt>
<wgt id='9015'>0.21210E+02</wgt>
<wgt id='9016'>0.21312E+02</wgt>
<wgt id='9017'>0.21256E+02</wgt>
<wgt id='9018'>0.21241E+02</wgt>
<wgt id='9019'>0.21222E+02</wgt>
<wgt id='9020'>0.21329E+02</wgt>
<wgt id='9021'>0.21235E+02</wgt>
<wgt id='9022'>0.21265E+02</wgt>
<wgt id='9023'>0.21211E+02</wgt>
<wgt id='9024'>0.21208E+02</wgt>
<wgt id='9025'>0.21268E+02</wgt>
<wgt id='9026'>0.21251E+02</wgt>
<wgt id='9027'>0.21221E+02</wgt>
<wgt id='9028'>0.21256E+02</wgt>
<wgt id='9029'>0.21260E+02</wgt>
<wgt id='9030'>0.21252E+02</wgt>
<wgt id='9031'>0.21237E+02</wgt>
<wgt id='9032'>0.21253E+02</wgt>
<wgt id='9033'>0.21267E+02</wgt>
<wgt id='9034'>0.21225E+02</wgt>
<wgt id='9035'>0.21275E+02</wgt>
<wgt id='9036'>0.21237E+02</wgt>
<wgt id='9037'>0.21261E+02</wgt>
<wgt id='9038'>0.21239E+02</wgt>
<wgt id='9039'>0.21240E+02</wgt>
<wgt id='9040'>0.21214E+02</wgt>
<wgt id='9041'>0.21229E+02</wgt>
<wgt id='9042'>0.21234E+02</wgt>
<wgt id='9043'>0.21224E+02</wgt>
<wgt id='9044'>0.21246E+02</wgt>
<wgt id='9045'>0.21235E+02</wgt>
<wgt id='9046'>0.21210E+02</wgt>
<wgt id='9047'>0.21227E+02</wgt>
<wgt id='9048'>0.21248E+02</wgt>
<wgt id='9049'>0.21229E+02</wgt>
<wgt id='9050'>0.21245E+02</wgt>
<wgt id='9051'>0.21247E+02</wgt>
<wgt id='9052'>0.21244E+02</wgt>
<wgt id='9053'>0.21243E+02</wgt>
<wgt id='9054'>0.21229E+02</wgt>
<wgt id='9055'>0.21237E+02</wgt>
<wgt id='9056'>0.21260E+02</wgt>
<wgt id='9057'>0.21238E+02</wgt>
<wgt id='9058'>0.21226E+02</wgt>
<wgt id='9059'>0.21231E+02</wgt>
<wgt id='9060'>0.21234E+02</wgt>
<wgt id='9061'>0.21243E+02</wgt>
<wgt id='9062'>0.21243E+02</wgt>
<wgt id='9063'>0.21249E+02</wgt>
<wgt id='9064'>0.21235E+02</wgt>
<wgt id='9065'>0.21239E+02</wgt>
<wgt id='9066'>0.21241E+02</wgt>
<wgt id='9067'>0.21247E+02</wgt>
<wgt id='9068'>0.21247E+02</wgt>
<wgt id='9069'>0.21251E+02</wgt>
<wgt id='9070'>0.21237E+02</wgt>
<wgt id='9071'>0.21252E+02</wgt>
<wgt id='9072'>0.21252E+02</wgt>
<wgt id='9073'>0.21234E+02</wgt>
<wgt id='9074'>0.21243E+02</wgt>
<wgt id='9075'>0.21239E+02</wgt>
<wgt id='9076'>0.21238E+02</wgt>
<wgt id='9077'>0.21243E+02</wgt>
<wgt id='9078'>0.21242E+02</wgt>
<wgt id='9079'>0.21236E+02</wgt>
<wgt id='9080'>0.21253E+02</wgt>
<wgt id='9081'>0.21238E+02</wgt>
<wgt id='9082'>0.21245E+02</wgt>
<wgt id='9083'>0.21233E+02</wgt>
<wgt id='9084'>0.21234E+02</wgt>
<wgt id='9085'>0.21235E+02</wgt>
<wgt id='9086'>0.21243E+02</wgt>
<wgt id='9087'>0.21227E+02</wgt>
<wgt id='9088'>0.21235E+02</wgt>
<wgt id='9089'>0.21235E+02</wgt>
<wgt id='9090'>0.21243E+02</wgt>
<wgt id='9091'>0.21238E+02</wgt>
<wgt id='9092'>0.21239E+02</wgt>
<wgt id='9093'>0.21237E+02</wgt>
<wgt id='9094'>0.21238E+02</wgt>
<wgt id='9095'>0.21242E+02</wgt>
<wgt id='9096'>0.21236E+02</wgt>
<wgt id='9097'>0.21241E+02</wgt>
<wgt id='9098'>0.21240E+02</wgt>
<wgt id='9099'>0.21235E+02</wgt>
<wgt id='9100'>0.21239E+02</wgt>
<wgt id='9101'>0.20933E+02</wgt>
<wgt id='9102'>0.21477E+02</wgt>
<wgt id='10000'>0.22367E+02</wgt>
<wgt id='10001'>0.22468E+02</wgt>
<wgt id='10002'>0.22380E+02</wgt>
<wgt id='10003'>0.22373E+02</wgt>
<wgt id='10004'>0.22456E+02</wgt>
<wgt id='10005'>0.23018E+02</wgt>
<wgt id='10006'>0.22372E+02</wgt>
<wgt id='10007'>0.22363E+02</wgt>
<wgt id='10008'>0.22395E+02</wgt>
<wgt id='10009'>0.22329E+02</wgt>
<wgt id='10010'>0.22371E+02</wgt>
<wgt id='10011'>0.22343E+02</wgt>
<wgt id='10012'>0.22332E+02</wgt>
<wgt id='10013'>0.22360E+02</wgt>
<wgt id='10014'>0.22379E+02</wgt>
<wgt id='10015'>0.22393E+02</wgt>
<wgt id='10016'>0.22379E+02</wgt>
<wgt id='10017'>0.22230E+02</wgt>
<wgt id='10018'>0.22386E+02</wgt>
<wgt id='10019'>0.22324E+02</wgt>
<wgt id='10020'>0.22382E+02</wgt>
<wgt id='10021'>0.22371E+02</wgt>
<wgt id='10022'>0.22361E+02</wgt>
<wgt id='10023'>0.22380E+02</wgt>
<wgt id='10024'>0.22372E+02</wgt>
<wgt id='10025'>0.22354E+02</wgt>
<wgt id='10026'>0.22360E+02</wgt>
<wgt id='10027'>0.22358E+02</wgt>
<wgt id='10028'>0.22396E+02</wgt>
<wgt id='10029'>0.22389E+02</wgt>
<wgt id='10030'>0.22357E+02</wgt>
<wgt id='10031'>0.21953E+02</wgt>
<wgt id='10032'>0.22716E+02</wgt>
<wgt id='11000'>0.21242E+02</wgt>
<wgt id='11001'>0.21266E+02</wgt>
<wgt id='11002'>0.21312E+02</wgt>
<wgt id='11003'>0.21220E+02</wgt>
<wgt id='11004'>0.21307E+02</wgt>
<wgt id='11005'>0.20952E+02</wgt>
<wgt id='11006'>0.21234E+02</wgt>
<wgt id='11007'>0.21198E+02</wgt>
<wgt id='11008'>0.21201E+02</wgt>
<wgt id='11009'>0.21140E+02</wgt>
<wgt id='11010'>0.21292E+02</wgt>
<wgt id='11011'>0.21118E+02</wgt>
<wgt id='11012'>0.21259E+02</wgt>
<wgt id='11013'>0.21327E+02</wgt>
<wgt id='11014'>0.21174E+02</wgt>
<wgt id='11015'>0.21214E+02</wgt>
<wgt id='11016'>0.21222E+02</wgt>
<wgt id='11017'>0.21420E+02</wgt>
<wgt id='11018'>0.21247E+02</wgt>
<wgt id='11019'>0.21239E+02</wgt>
<wgt id='11020'>0.21258E+02</wgt>
<wgt id='11021'>0.21315E+02</wgt>
<wgt id='11022'>0.21663E+02</wgt>
<wgt id='11023'>0.21230E+02</wgt>
<wgt id='11024'>0.21219E+02</wgt>
<wgt id='11025'>0.21183E+02</wgt>
<wgt id='11026'>0.21238E+02</wgt>
<wgt id='11027'>0.21238E+02</wgt>
<wgt id='11028'>0.21227E+02</wgt>
<wgt id='11029'>0.21226E+02</wgt>
<wgt id='11030'>0.21245E+02</wgt>
<wgt id='11031'>0.20933E+02</wgt>
<wgt id='11032'>0.21477E+02</wgt>
<wgt id='12000'>0.23780E+02</wgt>
<wgt id='12001'>0.23748E+02</wgt>
<wgt id='12002'>0.23811E+02</wgt>
<wgt id='12003'>0.23838E+02</wgt>
<wgt id='12004'>0.23722E+02</wgt>
<wgt id='12005'>0.23820E+02</wgt>
<wgt id='12006'>0.23739E+02</wgt>
<wgt id='12007'>0.23844E+02</wgt>
<wgt id='12008'>0.23717E+02</wgt>
<wgt id='12009'>0.23819E+02</wgt>
<wgt id='12010'>0.23740E+02</wgt>
<wgt id='12011'>0.23745E+02</wgt>
<wgt id='12012'>0.23818E+02</wgt>
<wgt id='12013'>0.23684E+02</wgt>
<wgt id='12014'>0.23876E+02</wgt>
<wgt id='12015'>0.23783E+02</wgt>
<wgt id='12016'>0.23742E+02</wgt>
<wgt id='12017'>0.23849E+02</wgt>
<wgt id='12018'>0.23701E+02</wgt>
<wgt id='12019'>0.23691E+02</wgt>
<wgt id='12020'>0.23865E+02</wgt>
<wgt id='12021'>0.23875E+02</wgt>
<wgt id='12022'>0.23657E+02</wgt>
<wgt id='12023'>0.23696E+02</wgt>
<wgt id='12024'>0.23744E+02</wgt>
<wgt id='12025'>0.23856E+02</wgt>
<wgt id='12026'>0.23738E+02</wgt>
<wgt id='12027'>0.23737E+02</wgt>
<wgt id='12028'>0.23842E+02</wgt>
<wgt id='12050'>0.23780E+02</wgt>
<wgt id='12051'>0.23755E+02</wgt>
<wgt id='12052'>0.23798E+02</wgt>
<wgt id='12053'>0.23749E+02</wgt>
<wgt id='12054'>0.23792E+02</wgt>
<wgt id='12055'>0.23845E+02</wgt>
<wgt id='12056'>0.23582E+02</wgt>
<wgt id='12057'>0.23683E+02</wgt>
<wgt id='12058'>0.23868E+02</wgt>
<wgt id='12059'>0.23718E+02</wgt>
<wgt id='12060'>0.23845E+02</wgt>
<wgt id='12061'>0.23784E+02</wgt>
<wgt id='12062'>0.23824E+02</wgt>
<wgt id='12063'>0.23547E+02</wgt>
<wgt id='13000'>0.21440E+02</wgt>
<wgt id='13001'>0.21424E+02</wgt>
<wgt id='13002'>0.21453E+02</wgt>
<wgt id='13003'>0.21466E+02</wgt>
<wgt id='13004'>0.21411E+02</wgt>
<wgt id='13005'>0.21491E+02</wgt>
<wgt id='13006'>0.21386E+02</wgt>
<wgt id='13007'>0.21530E+02</wgt>
<wgt id='13008'>0.21349E+02</wgt>
<wgt id='13009'>0.21446E+02</wgt>
<wgt id='13010'>0.21433E+02</wgt>
<wgt id='13011'>0.21491E+02</wgt>
<wgt id='13012'>0.21387E+02</wgt>
<wgt id='13013'>0.21373E+02</wgt>
<wgt id='13014'>0.21504E+02</wgt>
<wgt id='13015'>0.21403E+02</wgt>
<wgt id='13016'>0.21455E+02</wgt>
<wgt id='13017'>0.21425E+02</wgt>
<wgt id='13018'>0.21448E+02</wgt>
<wgt id='13019'>0.21400E+02</wgt>
<wgt id='13020'>0.21475E+02</wgt>
<wgt id='13021'>0.21256E+02</wgt>
<wgt id='13022'>0.21591E+02</wgt>
<wgt id='13023'>0.21455E+02</wgt>
<wgt id='13024'>0.21420E+02</wgt>
<wgt id='13025'>0.21399E+02</wgt>
<wgt id='13026'>0.21426E+02</wgt>
<wgt id='13027'>0.21454E+02</wgt>
<wgt id='13028'>0.21447E+02</wgt>
<wgt id='13050'>0.21440E+02</wgt>
<wgt id='13051'>0.21442E+02</wgt>
<wgt id='13052'>0.21394E+02</wgt>
<wgt id='13053'>0.21433E+02</wgt>
<wgt id='13054'>0.21432E+02</wgt>
<wgt id='13055'>0.21423E+02</wgt>
<wgt id='13056'>0.21443E+02</wgt>
<wgt id='13057'>0.21363E+02</wgt>
<wgt id='13058'>0.21551E+02</wgt>
<wgt id='13059'>0.21383E+02</wgt>
<wgt id='13060'>0.21516E+02</wgt>
<wgt id='13061'>0.21390E+02</wgt>
<wgt id='13062'>0.21595E+02</wgt>
<wgt id='13063'>0.21292E+02</wgt>
<wgt id='14000'>0.22165E+02</wgt>
<wgt id='14001'>0.22161E+02</wgt>
<wgt id='14002'>0.22157E+02</wgt>
<wgt id='14003'>0.22154E+02</wgt>
<wgt id='14004'>0.22150E+02</wgt>
<wgt id='14005'>0.22147E+02</wgt>
<wgt id='14006'>0.22143E+02</wgt>
<wgt id='14007'>0.22140E+02</wgt>
<wgt id='14008'>0.22136E+02</wgt>
<wgt id='14009'>0.22132E+02</wgt>
<wgt id='14010'>0.22129E+02</wgt>
<wgt id='14011'>0.22125E+02</wgt>
<wgt id='14012'>0.22122E+02</wgt>
<wgt id='14013'>0.22118E+02</wgt>
<wgt id='14014'>0.22114E+02</wgt>
<wgt id='14015'>0.22111E+02</wgt>
<wgt id='14016'>0.22107E+02</wgt>
<wgt id='14017'>0.22104E+02</wgt>
<wgt id='14018'>0.22100E+02</wgt>
<wgt id='14019'>0.22096E+02</wgt>
<wgt id='14020'>0.22093E+02</wgt>
<wgt id='14021'>0.22089E+02</wgt>
<wgt id='14022'>0.22086E+02</wgt>
<wgt id='14023'>0.22082E+02</wgt>
<wgt id='14024'>0.22078E+02</wgt>
<wgt id='14025'>0.22075E+02</wgt>
<wgt id='14026'>0.22071E+02</wgt>
<wgt id='14027'>0.22068E+02</wgt>
<wgt id='14028'>0.22064E+02</wgt>
<wgt id='14029'>0.22061E+02</wgt>
<wgt id='14030'>0.22057E+02</wgt>
<wgt id='15000'>0.20981E+02</wgt>
<wgt id='15001'>0.21022E+02</wgt>
<wgt id='15002'>0.21091E+02</wgt>
<wgt id='15003'>0.20790E+02</wgt>
<wgt id='15004'>0.20942E+02</wgt>
<wgt id='15005'>0.21095E+02</wgt>
<wgt id='15006'>0.20919E+02</wgt>
<wgt id='15007'>0.20981E+02</wgt>
<wgt id='15008'>0.21026E+02</wgt>
<wgt id='15009'>0.20970E+02</wgt>
<wgt id='15010'>0.20952E+02</wgt>
<wgt id='15011'>0.21209E+02</wgt>
<wgt id='15012'>0.20704E+02</wgt>
<wgt id='15013'>0.20701E+02</wgt>
<wgt id='15014'>0.20728E+02</wgt>
<wgt id='15015'>0.20952E+02</wgt>
<wgt id='15016'>0.21053E+02</wgt>
<wgt id='15017'>0.20997E+02</wgt>
<wgt id='15018'>0.20983E+02</wgt>
<wgt id='15019'>0.20964E+02</wgt>
<wgt id='15020'>0.21069E+02</wgt>
<wgt id='15021'>0.20976E+02</wgt>
<wgt id='15022'>0.21007E+02</wgt>
<wgt id='15023'>0.20952E+02</wgt>
<wgt id='15024'>0.20950E+02</wgt>
<wgt id='15025'>0.21010E+02</wgt>
<wgt id='15026'>0.20992E+02</wgt>
<wgt id='15027'>0.20962E+02</wgt>
<wgt id='15028'>0.20998E+02</wgt>
<wgt id='15029'>0.21002E+02</wgt>
<wgt id='15030'>0.20993E+02</wgt>
<wgt id='15031'>0.20978E+02</wgt>
<wgt id='15032'>0.20995E+02</wgt>
<wgt id='15033'>0.21008E+02</wgt>
<wgt id='15034'>0.20967E+02</wgt>
<wgt id='15035'>0.21017E+02</wgt>
<wgt id='15036'>0.20978E+02</wgt>
<wgt id='15037'>0.21002E+02</wgt>
<wgt id='15038'>0.20981E+02</wgt>
<wgt id='15039'>0.20982E+02</wgt>
<wgt id='15040'>0.20955E+02</wgt>
<wgt id='15041'>0.20971E+02</wgt>
<wgt id='15042'>0.20976E+02</wgt>
<wgt id='15043'>0.20966E+02</wgt>
<wgt id='15044'>0.20988E+02</wgt>
<wgt id='15045'>0.20977E+02</wgt>
<wgt id='15046'>0.20952E+02</wgt>
<wgt id='15047'>0.20969E+02</wgt>
<wgt id='15048'>0.20989E+02</wgt>
<wgt id='15049'>0.20971E+02</wgt>
<wgt id='15050'>0.20987E+02</wgt>
<wgt id='15051'>0.20988E+02</wgt>
<wgt id='15052'>0.20985E+02</wgt>
<wgt id='15053'>0.20985E+02</wgt>
<wgt id='15054'>0.20970E+02</wgt>
<wgt id='15055'>0.20978E+02</wgt>
<wgt id='15056'>0.21001E+02</wgt>
<wgt id='15057'>0.20979E+02</wgt>
<wgt id='15058'>0.20967E+02</wgt>
<wgt id='15059'>0.20972E+02</wgt>
<wgt id='15060'>0.20975E+02</wgt>
<wgt id='15061'>0.20985E+02</wgt>
<wgt id='15062'>0.20985E+02</wgt>
<wgt id='15063'>0.20991E+02</wgt>
<wgt id='15064'>0.20977E+02</wgt>
<wgt id='15065'>0.20981E+02</wgt>
<wgt id='15066'>0.20983E+02</wgt>
<wgt id='15067'>0.20988E+02</wgt>
<wgt id='15068'>0.20988E+02</wgt>
<wgt id='15069'>0.20992E+02</wgt>
<wgt id='15070'>0.20979E+02</wgt>
<wgt id='15071'>0.20993E+02</wgt>
<wgt id='15072'>0.20993E+02</wgt>
<wgt id='15073'>0.20976E+02</wgt>
<wgt id='15074'>0.20985E+02</wgt>
<wgt id='15075'>0.20980E+02</wgt>
<wgt id='15076'>0.20980E+02</wgt>
<wgt id='15077'>0.20984E+02</wgt>
<wgt id='15078'>0.20983E+02</wgt>
<wgt id='15079'>0.20978E+02</wgt>
<wgt id='15080'>0.20995E+02</wgt>
<wgt id='15081'>0.20980E+02</wgt>
<wgt id='15082'>0.20986E+02</wgt>
<wgt id='15083'>0.20975E+02</wgt>
<wgt id='15084'>0.20976E+02</wgt>
<wgt id='15085'>0.20976E+02</wgt>
<wgt id='15086'>0.20984E+02</wgt>
<wgt id='15087'>0.20969E+02</wgt>
<wgt id='15088'>0.20977E+02</wgt>
<wgt id='15089'>0.20977E+02</wgt>
<wgt id='15090'>0.20984E+02</wgt>
<wgt id='15091'>0.20979E+02</wgt>
<wgt id='15092'>0.20981E+02</wgt>
<wgt id='15093'>0.20978E+02</wgt>
<wgt id='15094'>0.20980E+02</wgt>
<wgt id='15095'>0.20984E+02</wgt>
<wgt id='15096'>0.20977E+02</wgt>
<wgt id='15097'>0.20983E+02</wgt>
<wgt id='15098'>0.20981E+02</wgt>
<wgt id='15099'>0.20977E+02</wgt>
<wgt id='15100'>0.20981E+02</wgt>
<wgt id='15101'>0.20981E+02</wgt>
<wgt id='15102'>0.20980E+02</wgt>
<wgt id='15103'>0.20982E+02</wgt>
<wgt id='15104'>0.20982E+02</wgt>
<wgt id='15105'>0.20982E+02</wgt>
<wgt id='15106'>0.20982E+02</wgt>
<wgt id='15107'>0.20980E+02</wgt>
<wgt id='1500'>0.22137E+02</wgt>
<wgt id='1501'>0.20204E+02</wgt>
<wgt id='1502'>0.22311E+02</wgt>
<wgt id='1503'>0.21983E+02</wgt>
<wgt id='1504'>0.21874E+02</wgt>
<wgt id='1505'>0.19406E+02</wgt>
<wgt id='1506'>0.22145E+02</wgt>
<wgt id='1507'>0.22512E+02</wgt>
<wgt id='1508'>0.21957E+02</wgt>
<wgt id='1509'>0.22111E+02</wgt>
<wgt id='1510'>0.21538E+02</wgt>
<wgt id='1511'>0.21864E+02</wgt>
<wgt id='1512'>0.22524E+02</wgt>
<wgt id='1513'>0.22510E+02</wgt>
<wgt id='1514'>0.21532E+02</wgt>
<wgt id='1515'>0.22117E+02</wgt>
<wgt id='1516'>0.22562E+02</wgt>
<wgt id='1517'>0.21757E+02</wgt>
<wgt id='1518'>0.21915E+02</wgt>
<wgt id='1519'>0.22346E+02</wgt>
<wgt id='1520'>0.22401E+02</wgt>
<wgt id='1521'>0.22254E+02</wgt>
<wgt id='1522'>0.22011E+02</wgt>
<wgt id='1523'>0.23874E+02</wgt>
<wgt id='1524'>0.21913E+02</wgt>
<wgt id='1525'>0.22490E+02</wgt>
<wgt id='1526'>0.21675E+02</wgt>
<wgt id='1527'>0.21951E+02</wgt>
<wgt id='1528'>0.22006E+02</wgt>
<wgt id='1529'>0.21815E+02</wgt>
<wgt id='1530'>0.22554E+02</wgt>
<wgt id='1531'>0.22038E+02</wgt>
<wgt id='1532'>0.21535E+02</wgt>
<wgt id='1533'>0.22755E+02</wgt>
<wgt id='1534'>0.22308E+02</wgt>
<wgt id='1535'>0.22845E+02</wgt>
<wgt id='1536'>0.22852E+02</wgt>
<wgt id='1537'>0.22348E+02</wgt>
<wgt id='1538'>0.21829E+02</wgt>
<wgt id='1539'>0.21261E+02</wgt>
<wgt id='1540'>0.22480E+02</wgt>
<wgt id='1541'>0.22026E+02</wgt>
<wgt id='1542'>0.22571E+02</wgt>
<wgt id='1543'>0.22410E+02</wgt>
<wgt id='1544'>0.21956E+02</wgt>
<wgt id='1545'>0.22629E+02</wgt>
<wgt id='1546'>0.22254E+02</wgt>
<wgt id='1547'>0.21757E+02</wgt>
<wgt id='1548'>0.21685E+02</wgt>
<wgt id='1549'>0.22422E+02</wgt>
<wgt id='1550'>0.22239E+02</wgt>
<wgt id='1551'>0.22155E+02</wgt>
<wgt id='1552'>0.22106E+02</wgt>
<wgt id='1553'>0.22552E+02</wgt>
<wgt id='1554'>0.22127E+02</wgt>
<wgt id='1555'>0.22232E+02</wgt>
<wgt id='1556'>0.21497E+02</wgt>
<wgt id='1557'>0.23114E+02</wgt>
<wgt id='1558'>0.21969E+02</wgt>
<wgt id='1559'>0.22420E+02</wgt>
<wgt id='1560'>0.22066E+02</wgt>
<wgt id='1561'>0.22426E+02</wgt>
<wgt id='1562'>0.22184E+02</wgt>
<wgt id='1563'>0.22581E+02</wgt>
<wgt id='1564'>0.21891E+02</wgt>
<wgt id='1565'>0.22482E+02</wgt>
<wgt id='1566'>0.22208E+02</wgt>
<wgt id='1567'>0.23176E+02</wgt>
<wgt id='1568'>0.21843E+02</wgt>
<wgt id='1569'>0.21627E+02</wgt>
<wgt id='1570'>0.22231E+02</wgt>
<wgt id='1571'>0.22758E+02</wgt>
<wgt id='1572'>0.21928E+02</wgt>
<wgt id='1573'>0.20412E+02</wgt>
<wgt id='1574'>0.22349E+02</wgt>
<wgt id='1575'>0.21909E+02</wgt>
<wgt id='1576'>0.21527E+02</wgt>
<wgt id='1577'>0.22316E+02</wgt>
<wgt id='1578'>0.23035E+02</wgt>
<wgt id='1579'>0.22045E+02</wgt>
<wgt id='1580'>0.22330E+02</wgt>
<wgt id='1581'>0.22280E+02</wgt>
<wgt id='1582'>0.21879E+02</wgt>
<wgt id='1583'>0.22147E+02</wgt>
<wgt id='1584'>0.22241E+02</wgt>
<wgt id='1585'>0.21493E+02</wgt>
<wgt id='1586'>0.22078E+02</wgt>
<wgt id='1587'>0.22086E+02</wgt>
<wgt id='1588'>0.22192E+02</wgt>
<wgt id='1589'>0.22550E+02</wgt>
<wgt id='1590'>0.22050E+02</wgt>
<wgt id='1591'>0.21423E+02</wgt>
<wgt id='1592'>0.22774E+02</wgt>
<wgt id='1593'>0.21940E+02</wgt>
<wgt id='1594'>0.22707E+02</wgt>
<wgt id='1595'>0.21761E+02</wgt>
<wgt id='1596'>0.22484E+02</wgt>
<wgt id='1597'>0.22282E+02</wgt>
<wgt id='1598'>0.23150E+02</wgt>
<wgt id='1599'>0.22778E+02</wgt>
<wgt id='1600'>0.21965E+02</wgt>
<wgt id='1601'>0.21780E+02</wgt>
<wgt id='1602'>0.22288E+02</wgt>
<wgt id='1700'>0.21318E+02</wgt>
<wgt id='1800'>0.25954E+02</wgt>
<wgt id='1850'>0.30983E+02</wgt>
<wgt id='1900'>0.25370E+02</wgt>
<wgt id='1950'>0.29892E+02</wgt>
</rwgt>
</event>
<event>
      4   9999  2.16956E+01  3.78089E+01 -1.00000E+00  1.44145E-01
      21    -1     0     0   502   511  0.000000000E+00  0.000000000E+00  3.607602836E+02  3.607602836E+02  0.000000000E+00  0.00000E+00  9.000E+00
      21    -1     0     0   501   502  0.000000000E+00  0.000000000E+00 -1.998848509E+01  1.998848509E+01  0.000000000E+00  0.00000E+00  9.000E+00
      25     1     1     2     0     0 -2.072464807E+01 -3.162279800E+01  2.420168977E+02  2.750035900E+02  1.250011333E+02  0.00000E+00  9.000E+00
      21     1     1     2   501   511  2.072464807E+01  3.162279800E+01  9.875490071E+01  1.057451786E+02  0.000000000E+00  0.00000E+00  9.000E+00
#rwgt            1           1   19.492850611482456                1        4542           0
<rwgt>
<wgt id='1001'>0.21696E+02</wgt>
<wgt id='1002'>0.24122E+02</wgt>
<wgt id='1003'>0.19062E+02</wgt>
<wgt id='1004'>0.17346E+02</wgt>
<wgt id='1005'>0.19214E+02</wgt>
<wgt id='1006'>0.15303E+02</wgt>
<wgt id='1007'>0.27883E+02</wgt>
<wgt id='1008'>0.31131E+02</wgt>
<wgt id='1009'>0.24383E+02</wgt>
<wgt id='2000'>0.21696E+02</wgt>
<wgt id='2001'>0.21663E+02</wgt>
<wgt id='2002'>0.21752E+02</wgt>
<wgt id='2003'>0.21733E+02</wgt>
<wgt id='2004'>0.21705E+02</wgt>
<wgt id='2005'>0.21679E+02</wgt>
<wgt id='2006'>0.21669E+02</wgt>
<wgt id='2007'>0.21662E+02</wgt>
<wgt id='2008'>0.21708E+02</wgt>
<wgt id='2009'>0.21687E+02</wgt>
<wgt id='2010'>0.21672E+02</wgt>
<wgt id='2011'>0.21757E+02</wgt>
<wgt id='2012'>0.21765E+02</wgt>
<wgt id='2013'>0.21770E+02</wgt>
<wgt id='2014'>0.21751E+02</wgt>
<wgt id='2015'>0.21739E+02</wgt>
<wgt id='2016'>0.21701E+02</wgt>
<wgt id='2017'>0.21693E+02</wgt>
<wgt id='2018'>0.21744E+02</wgt>
<wgt id='2019'>0.21690E+02</wgt>
<wgt id='2020'>0.21779E+02</wgt>
<wgt id='2021'>0.21654E+02</wgt>
<wgt id='2022'>0.21766E+02</wgt>
<wgt id='2023'>0.21741E+02</wgt>
<wgt id='2024'>0.21698E+02</wgt>
<wgt id='2025'>0.21770E+02</wgt>
<wgt id='2026'>0.21744E+02</wgt>
<wgt id='2027'>0.21672E+02</wgt>
<wgt id='2028'>0.21666E+02</wgt>
<wgt id='2029'>0.21713E+02</wgt>
<wgt id='2030'>0.21705E+02</wgt>
<wgt id='2031'>0.21712E+02</wgt>
<wgt id='2032'>0.21691E+02</wgt>
<wgt id='2033'>0.21700E+02</wgt>
<wgt id='2034'>0.21706E+02</wgt>
<wgt id='2035'>0.21693E+02</wgt>
<wgt id='2036'>0.21700E+02</wgt>
<wgt id='2037'>0.21701E+02</wgt>
<wgt id='2038'>0.21701E+02</wgt>
<wgt id='2039'>0.21692E+02</wgt>
<wgt id='2040'>0.21697E+02</wgt>
<wgt id='2041'>0.21692E+02</wgt>
<wgt id='2042'>0.21677E+02</wgt>
<wgt id='2043'>0.21707E+02</wgt>
<wgt id='2044'>0.21706E+02</wgt>
<wgt id='2045'>0.21695E+02</wgt>
<wgt id='2046'>0.21706E+02</wgt>
<wgt id='2047'>0.21706E+02</wgt>
<wgt id='2048'>0.21696E+02</wgt>
<wgt id='2049'>0.21694E+02</wgt>
<wgt id='2050'>0.21706E+02</wgt>
<wgt id='2051'>0.21700E+02</wgt>
<wgt id='2052'>0.21686E+02</wgt>
<wgt id='2053'>0.21692E+02</wgt>
<wgt id='2054'>0.21697E+02</wgt>
<wgt id='2055'>0.21697E+02</wgt>
<wgt id='2056'>0.21696E+02</wgt>
<wgt id='2057'>0.21692E+02</wgt>
<wgt id='2058'>0.21699E+02</wgt>
<wgt id='2059'>0.21693E+02</wgt>
<wgt id='2060'>0.21696E+02</wgt>
<wgt id='2061'>0.21694E+02</wgt>
<wgt id='2062'>0.21700E+02</wgt>
<wgt id='2063'>0.21694E+02</wgt>
<wgt id='2064'>0.21694E+02</wgt>
<wgt id='2065'>0.21698E+02</wgt>
<wgt id='2066'>0.21695E+02</wgt>
<wgt id='2067'>0.21694E+02</wgt>
<wgt id='2068'>0.21697E+02</wgt>
<wgt id='2069'>0.21691E+02</wgt>
<wgt id='2070'>0.21689E+02</wgt>
<wgt id='2071'>0.21686E+02</wgt>
<wgt id='2072'>0.21695E+02</wgt>
<wgt id='2073'>0.21695E+02</wgt>
<wgt id='2074'>0.21685E+02</wgt>
<wgt id='2075'>0.21699E+02</wgt>
<wgt id='2076'>0.21691E+02</wgt>
<wgt id='2077'>0.21694E+02</wgt>
<wgt id='2078'>0.21698E+02</wgt>
<wgt id='2079'>0.21696E+02</wgt>
<wgt id='2080'>0.21697E+02</wgt>
<wgt id='2081'>0.21698E+02</wgt>
<wgt id='2082'>0.21696E+02</wgt>
<wgt id='2083'>0.21697E+02</wgt>
<wgt id='2084'>0.21698E+02</wgt>
<wgt id='2085'>0.21696E+02</wgt>
<wgt id='2086'>0.21695E+02</wgt>
<wgt id='2087'>0.21695E+02</wgt>
<wgt id='2088'>0.21697E+02</wgt>
<wgt id='2089'>0.21695E+02</wgt>
<wgt id='2090'>0.21696E+02</wgt>
<wgt id='2091'>0.21696E+02</wgt>
<wgt id='2092'>0.21699E+02</wgt>
<wgt id='2093'>0.21694E+02</wgt>
<wgt id='2094'>0.21699E+02</wgt>
<wgt id='2095'>0.21696E+02</wgt>
<wgt id='2096'>0.21694E+02</wgt>
<wgt id='2097'>0.21697E+02</wgt>
<wgt id='2098'>0.21695E+02</wgt>
<wgt id='2099'>0.21695E+02</wgt>
<wgt id='2100'>0.21696E+02</wgt>
<wgt id='2101'>0.21035E+02</wgt>
<wgt id='2102'>0.22308E+02</wgt>
<wgt id='2104'>0.18648E+02</wgt>
<wgt id='2105'>0.19211E+02</wgt>
<wgt id='2106'>0.19822E+02</wgt>
<wgt id='2107'>0.20464E+02</wgt>
<wgt id='2108'>0.21399E+02</wgt>
<wgt id='2109'>0.22045E+02</wgt>
<wgt id='2110'>0.22888E+02</wgt>
<wgt id='2111'>0.23523E+02</wgt>
<wgt id='3000'>0.22768E+02</wgt>
<wgt id='3001'>0.22825E+02</wgt>
<wgt id='3002'>0.22707E+02</wgt>
<wgt id='3003'>0.22812E+02</wgt>
<wgt id='3004'>0.22797E+02</wgt>
<wgt id='3005'>0.22818E+02</wgt>
<wgt id='3006'>0.22781E+02</wgt>
<wgt id='3007'>0.22768E+02</wgt>
<wgt id='3008'>0.22734E+02</wgt>
<wgt id='3009'>0.22705E+02</wgt>
<wgt id='3010'>0.22715E+02</wgt>
<wgt id='3011'>0.22804E+02</wgt>
<wgt id='3012'>0.22864E+02</wgt>
<wgt id='3013'>0.22681E+02</wgt>
<wgt id='3014'>0.22810E+02</wgt>
<wgt id='3015'>0.22782E+02</wgt>
<wgt id='3016'>0.22784E+02</wgt>
<wgt id='3017'>0.22816E+02</wgt>
<wgt id='3018'>0.22814E+02</wgt>
<wgt id='3019'>0.22704E+02</wgt>
<wgt id='3020'>0.22704E+02</wgt>
<wgt id='3021'>0.22686E+02</wgt>
<wgt id='3022'>0.22762E+02</wgt>
<wgt id='3023'>0.22716E+02</wgt>
<wgt id='3024'>0.22706E+02</wgt>
<wgt id='3025'>0.22765E+02</wgt>
<wgt id='3026'>0.22811E+02</wgt>
<wgt id='3027'>0.22775E+02</wgt>
<wgt id='3028'>0.22704E+02</wgt>
<wgt id='3029'>0.22760E+02</wgt>
<wgt id='3030'>0.22789E+02</wgt>
<wgt id='3031'>0.22777E+02</wgt>
<wgt id='3032'>0.22782E+02</wgt>
<wgt id='3033'>0.22779E+02</wgt>
<wgt id='3034'>0.22780E+02</wgt>
<wgt id='3035'>0.22780E+02</wgt>
<wgt id='3036'>0.22772E+02</wgt>
<wgt id='3037'>0.22769E+02</wgt>
<wgt id='3038'>0.22768E+02</wgt>
<wgt id='3039'>0.22771E+02</wgt>
<wgt id='3040'>0.22768E+02</wgt>
<wgt id='3041'>0.22766E+02</wgt>
<wgt id='3042'>0.22751E+02</wgt>
<wgt id='3043'>0.22752E+02</wgt>
<wgt id='3044'>0.22777E+02</wgt>
<wgt id='3045'>0.22781E+02</wgt>
<wgt id='3046'>0.22775E+02</wgt>
<wgt id='3047'>0.22763E+02</wgt>
<wgt id='3048'>0.22778E+02</wgt>
<wgt id='3049'>0.22763E+02</wgt>
<wgt id='3050'>0.22767E+02</wgt>
<wgt id='3051'>0.22786E+02</wgt>
<wgt id='3052'>0.22765E+02</wgt>
<wgt id='3053'>0.22765E+02</wgt>
<wgt id='3054'>0.22764E+02</wgt>
<wgt id='3055'>0.22773E+02</wgt>
<wgt id='3056'>0.22771E+02</wgt>
<wgt id='3057'>0.22762E+02</wgt>
<wgt id='3058'>0.22764E+02</wgt>
<wgt id='3059'>0.22769E+02</wgt>
<wgt id='3060'>0.22770E+02</wgt>
<wgt id='3061'>0.22775E+02</wgt>
<wgt id='3062'>0.22769E+02</wgt>
<wgt id='3063'>0.22771E+02</wgt>
<wgt id='3064'>0.22768E+02</wgt>
<wgt id='3065'>0.22772E+02</wgt>
<wgt id='3066'>0.22771E+02</wgt>
<wgt id='3067'>0.22762E+02</wgt>
<wgt id='3068'>0.22767E+02</wgt>
<wgt id='3069'>0.22761E+02</wgt>
<wgt id='3070'>0.22761E+02</wgt>
<wgt id='3071'>0.22769E+02</wgt>
<wgt id='3072'>0.22773E+02</wgt>
<wgt id='3073'>0.22770E+02</wgt>
<wgt id='3074'>0.22771E+02</wgt>
<wgt id='3075'>0.22771E+02</wgt>
<wgt id='3076'>0.22769E+02</wgt>
<wgt id='3077'>0.22766E+02</wgt>
<wgt id='3078'>0.22772E+02</wgt>
<wgt id='3079'>0.22767E+02</wgt>
<wgt id='3080'>0.22765E+02</wgt>
<wgt id='3081'>0.22768E+02</wgt>
<wgt id='3082'>0.22767E+02</wgt>
<wgt id='3083'>0.22767E+02</wgt>
<wgt id='3084'>0.22766E+02</wgt>
<wgt id='3085'>0.22769E+02</wgt>
<wgt id='3086'>0.22768E+02</wgt>
<wgt id='3087'>0.22766E+02</wgt>
<wgt id='3088'>0.22767E+02</wgt>
<wgt id='3089'>0.22768E+02</wgt>
<wgt id='3090'>0.22768E+02</wgt>
<wgt id='3091'>0.22769E+02</wgt>
<wgt id='3092'>0.22767E+02</wgt>
<wgt id='3093'>0.22768E+02</wgt>
<wgt id='3094'>0.22770E+02</wgt>
<wgt id='3095'>0.22769E+02</wgt>
<wgt id='3096'>0.22768E+02</wgt>
<wgt id='3097'>0.22766E+02</wgt>
<wgt id='3098'>0.22769E+02</wgt>
<wgt id='3099'>0.22769E+02</wgt>
<wgt id='3100'>0.22768E+02</wgt>
<wgt id='3101'>0.22084E+02</wgt>
<wgt id='3102'>0.23530E+02</wgt>
<wgt id='5000'>0.20980E+02</wgt>
<wgt id='5001'>0.20925E+02</wgt>
<wgt id='5002'>0.20937E+02</wgt>
<wgt id='5003'>0.20892E+02</wgt>
<wgt id='5004'>0.20985E+02</wgt>
<wgt id='5005'>0.20665E+02</wgt>
<wgt id='5006'>0.21095E+02</wgt>
<wgt id='5007'>0.20997E+02</wgt>
<wgt id='5008'>0.20836E+02</wgt>
<wgt id='5009'>0.21154E+02</wgt>
<wgt id='5010'>0.20881E+02</wgt>
<wgt id='5011'>0.20962E+02</wgt>
<wgt id='5012'>0.20954E+02</wgt>
<wgt id='5013'>0.20629E+02</wgt>
<wgt id='5014'>0.21037E+02</wgt>
<wgt id='5015'>0.21111E+02</wgt>
<wgt id='5016'>0.20573E+02</wgt>
<wgt id='5017'>0.20979E+02</wgt>
<wgt id='5018'>0.20983E+02</wgt>
<wgt id='5019'>0.20928E+02</wgt>
<wgt id='5020'>0.21030E+02</wgt>
<wgt id='5021'>0.21041E+02</wgt>
<wgt id='5022'>0.20941E+02</wgt>
<wgt id='5023'>0.20909E+02</wgt>
<wgt id='5024'>0.21054E+02</wgt>
<wgt id='5025'>0.20962E+02</wgt>
<wgt id='5026'>0.20995E+02</wgt>
<wgt id='5027'>0.21178E+02</wgt>
<wgt id='5028'>0.20646E+02</wgt>
<wgt id='5029'>0.20613E+02</wgt>
<wgt id='5030'>0.21201E+02</wgt>
<wgt id='5031'>0.20767E+02</wgt>
<wgt id='5032'>0.21288E+02</wgt>
<wgt id='5033'>0.20852E+02</wgt>
<wgt id='5034'>0.21087E+02</wgt>
<wgt id='5035'>0.20721E+02</wgt>
<wgt id='5036'>0.21194E+02</wgt>
<wgt id='5037'>0.20883E+02</wgt>
<wgt id='5038'>0.21080E+02</wgt>
<wgt id='5039'>0.21330E+02</wgt>
<wgt id='5040'>0.20802E+02</wgt>
<wgt id='5041'>0.20825E+02</wgt>
<wgt id='5042'>0.20990E+02</wgt>
<wgt id='5043'>0.21128E+02</wgt>
<wgt id='5044'>0.20520E+02</wgt>
<wgt id='5045'>0.21472E+02</wgt>
<wgt id='5046'>0.20834E+02</wgt>
<wgt id='5047'>0.21081E+02</wgt>
<wgt id='5048'>0.21097E+02</wgt>
<wgt id='5049'>0.20991E+02</wgt>
<wgt id='5050'>0.21020E+02</wgt>
<wgt id='5051'>0.21023E+02</wgt>
<wgt id='5052'>0.20973E+02</wgt>
<wgt id='5053'>0.20752E+02</wgt>
<wgt id='5054'>0.21173E+02</wgt>
<wgt id='5055'>0.20854E+02</wgt>
<wgt id='5056'>0.21140E+02</wgt>
<wgt id='5060'>0.20320E+02</wgt>
<wgt id='5070'>0.21601E+02</wgt>
<wgt id='4000'>0.22151E+02</wgt>
<wgt id='4001'>0.22169E+02</wgt>
<wgt id='4002'>0.22205E+02</wgt>
<wgt id='4003'>0.22412E+02</wgt>
<wgt id='4004'>0.22029E+02</wgt>
<wgt id='4005'>0.22216E+02</wgt>
<wgt id='4006'>0.22100E+02</wgt>
<wgt id='4007'>0.22323E+02</wgt>
<wgt id='4008'>0.22090E+02</wgt>
<wgt id='4009'>0.21783E+02</wgt>
<wgt id='4010'>0.22367E+02</wgt>
<wgt id='4011'>0.22455E+02</wgt>
<wgt id='4012'>0.21973E+02</wgt>
<wgt id='4013'>0.21439E+02</wgt>
<wgt id='4014'>0.22553E+02</wgt>
<wgt id='4015'>0.22380E+02</wgt>
<wgt id='4016'>0.22002E+02</wgt>
<wgt id='4017'>0.21910E+02</wgt>
<wgt id='4018'>0.22436E+02</wgt>
<wgt id='4019'>0.22403E+02</wgt>
<wgt id='4020'>0.21868E+02</wgt>
<wgt id='4021'>0.22192E+02</wgt>
<wgt id='4022'>0.22057E+02</wgt>
<wgt id='4023'>0.22062E+02</wgt>
<wgt id='4024'>0.22227E+02</wgt>
<wgt id='4025'>0.21947E+02</wgt>
<wgt id='4026'>0.22335E+02</wgt>
<wgt id='4027'>0.22087E+02</wgt>
<wgt id='4028'>0.22235E+02</wgt>
<wgt id='4029'>0.22007E+02</wgt>
<wgt id='4030'>0.22200E+02</wgt>
<wgt id='4031'>0.22184E+02</wgt>
<wgt id='4032'>0.22107E+02</wgt>
<wgt id='4033'>0.22123E+02</wgt>
<wgt id='4034'>0.22210E+02</wgt>
<wgt id='4035'>0.22406E+02</wgt>
<wgt id='4036'>0.21905E+02</wgt>
<wgt id='4037'>0.22288E+02</wgt>
<wgt id='4038'>0.21912E+02</wgt>
<wgt id='4039'>0.22126E+02</wgt>
<wgt id='4040'>0.22136E+02</wgt>
<wgt id='4041'>0.22296E+02</wgt>
<wgt id='4042'>0.22019E+02</wgt>
<wgt id='4043'>0.22284E+02</wgt>
<wgt id='4044'>0.22032E+02</wgt>
<wgt id='4045'>0.21868E+02</wgt>
<wgt id='4046'>0.22109E+02</wgt>
<wgt id='4047'>0.21977E+02</wgt>
<wgt id='4048'>0.22192E+02</wgt>
<wgt id='4049'>0.22086E+02</wgt>
<wgt id='4050'>0.21907E+02</wgt>
<wgt id='4051'>0.22106E+02</wgt>
<wgt id='4052'>0.22114E+02</wgt>
<wgt id='4053'>0.21567E+02</wgt>
<wgt id='4054'>0.22210E+02</wgt>
<wgt id='4055'>0.22009E+02</wgt>
<wgt id='4056'>0.22324E+02</wgt>
<wgt id='4060'>0.21390E+02</wgt>
<wgt id='4070'>0.22886E+02</wgt>
<wgt id='4080'>0.22457E+02</wgt>
<wgt id='6000'>0.22418E+02</wgt>
<wgt id='6001'>0.22437E+02</wgt>
<wgt id='6002'>0.22398E+02</wgt>
<wgt id='6003'>0.22429E+02</wgt>
<wgt id='6004'>0.22410E+02</wgt>
<wgt id='6005'>0.22463E+02</wgt>
<wgt id='6006'>0.22376E+02</wgt>
<wgt id='6007'>0.22333E+02</wgt>
<wgt id='6008'>0.22513E+02</wgt>
<wgt id='6009'>0.22500E+02</wgt>
<wgt id='6010'>0.22338E+02</wgt>
<wgt id='6011'>0.22468E+02</wgt>
<wgt id='6012'>0.22312E+02</wgt>
<wgt id='6013'>0.22393E+02</wgt>
<wgt id='6014'>0.22463E+02</wgt>
<wgt id='6015'>0.22352E+02</wgt>
<wgt id='6016'>0.22455E+02</wgt>
<wgt id='6017'>0.22288E+02</wgt>
<wgt id='6018'>0.22572E+02</wgt>
<wgt id='6019'>0.22439E+02</wgt>
<wgt id='6020'>0.22400E+02</wgt>
<wgt id='6021'>0.22371E+02</wgt>
<wgt id='6022'>0.22483E+02</wgt>
<wgt id='6023'>0.22264E+02</wgt>
<wgt id='6024'>0.22527E+02</wgt>
<wgt id='6025'>0.22275E+02</wgt>
<wgt id='6026'>0.22503E+02</wgt>
<wgt id='6027'>0.22480E+02</wgt>
<wgt id='6028'>0.22418E+02</wgt>
<wgt id='6029'>0.22516E+02</wgt>
<wgt id='6030'>0.22303E+02</wgt>
<wgt id='6031'>0.22419E+02</wgt>
<wgt id='6032'>0.22409E+02</wgt>
<wgt id='6033'>0.22463E+02</wgt>
<wgt id='6034'>0.22371E+02</wgt>
<wgt id='6035'>0.22415E+02</wgt>
<wgt id='6036'>0.22467E+02</wgt>
<wgt id='6037'>0.22457E+02</wgt>
<wgt id='6038'>0.22417E+02</wgt>
<wgt id='6039'>0.22391E+02</wgt>
<wgt id='6040'>0.22448E+02</wgt>
<wgt id='6041'>0.22375E+02</wgt>
<wgt id='6042'>0.22472E+02</wgt>
<wgt id='6043'>0.22708E+02</wgt>
<wgt id='6044'>0.22293E+02</wgt>
<wgt id='6045'>0.22401E+02</wgt>
<wgt id='6046'>0.22463E+02</wgt>
<wgt id='6047'>0.22475E+02</wgt>
<wgt id='6048'>0.22211E+02</wgt>
<wgt id='6049'>0.22448E+02</wgt>
<wgt id='6050'>0.22394E+02</wgt>
<wgt id='7000'>0.21012E+02</wgt>
<wgt id='7001'>0.21017E+02</wgt>
<wgt id='7002'>0.21005E+02</wgt>
<wgt id='7003'>0.21073E+02</wgt>
<wgt id='7004'>0.20951E+02</wgt>
<wgt id='7005'>0.21050E+02</wgt>
<wgt id='7006'>0.20997E+02</wgt>
<wgt id='7007'>0.20929E+02</wgt>
<wgt id='7008'>0.21095E+02</wgt>
<wgt id='7009'>0.21051E+02</wgt>
<wgt id='7010'>0.20973E+02</wgt>
<wgt id='7011'>0.20805E+02</wgt>
<wgt id='7012'>0.21102E+02</wgt>
<wgt id='7013'>0.21012E+02</wgt>
<wgt id='7014'>0.21012E+02</wgt>
<wgt id='7015'>0.20950E+02</wgt>
<wgt id='7016'>0.21078E+02</wgt>
<wgt id='7017'>0.20918E+02</wgt>
<wgt id='7018'>0.21061E+02</wgt>
<wgt id='7019'>0.20988E+02</wgt>
<wgt id='7020'>0.21046E+02</wgt>
<wgt id='7021'>0.21006E+02</wgt>
<wgt id='7022'>0.21015E+02</wgt>
<wgt id='7023'>0.21186E+02</wgt>
<wgt id='7024'>0.20834E+02</wgt>
<wgt id='7025'>0.21086E+02</wgt>
<wgt id='7026'>0.20829E+02</wgt>
<wgt id='7027'>0.21095E+02</wgt>
<wgt id='7028'>0.20982E+02</wgt>
<wgt id='7029'>0.20945E+02</wgt>
<wgt id='7030'>0.21173E+02</wgt>
<wgt id='7031'>0.21002E+02</wgt>
<wgt id='7032'>0.21037E+02</wgt>
<wgt id='7033'>0.20994E+02</wgt>
<wgt id='7034'>0.21059E+02</wgt>
<wgt id='7035'>0.21041E+02</wgt>
<wgt id='7036'>0.21009E+02</wgt>
<wgt id='7037'>0.21019E+02</wgt>
<wgt id='7038'>0.21021E+02</wgt>
<wgt id='7039'>0.20983E+02</wgt>
<wgt id='7040'>0.21032E+02</wgt>
<wgt id='7041'>0.20975E+02</wgt>
<wgt id='7042'>0.21045E+02</wgt>
<wgt id='7043'>0.21029E+02</wgt>
<wgt id='7044'>0.20915E+02</wgt>
<wgt id='7045'>0.20837E+02</wgt>
<wgt id='7046'>0.21094E+02</wgt>
<wgt id='7047'>0.21051E+02</wgt>
<wgt id='7048'>0.20990E+02</wgt>
<wgt id='7049'>0.20974E+02</wgt>
<wgt id='7050'>0.21012E+02</wgt>
<wgt id='7060'>0.34419E+02</wgt>
<wgt id='8000'>0.21344E+02</wgt>
<wgt id='8001'>0.21338E+02</wgt>
<wgt id='8002'>0.21350E+02</wgt>
<wgt id='8003'>0.21346E+02</wgt>
<wgt id='8004'>0.21343E+02</wgt>
<wgt id='8005'>0.21293E+02</wgt>
<wgt id='8006'>0.21333E+02</wgt>
<wgt id='8007'>0.21321E+02</wgt>
<wgt id='8008'>0.21382E+02</wgt>
<wgt id='8009'>0.21423E+02</wgt>
<wgt id='8010'>0.21343E+02</wgt>
<wgt id='8011'>0.21334E+02</wgt>
<wgt id='8012'>0.21317E+02</wgt>
<wgt id='8013'>0.21335E+02</wgt>
<wgt id='8014'>0.21338E+02</wgt>
<wgt id='8015'>0.21327E+02</wgt>
<wgt id='8016'>0.21352E+02</wgt>
<wgt id='8017'>0.21345E+02</wgt>
<wgt id='8018'>0.21349E+02</wgt>
<wgt id='8019'>0.21373E+02</wgt>
<wgt id='8020'>0.21286E+02</wgt>
<wgt id='8021'>0.21344E+02</wgt>
<wgt id='8022'>0.21238E+02</wgt>
<wgt id='8023'>0.21359E+02</wgt>
<wgt id='8024'>0.21372E+02</wgt>
<wgt id='8025'>0.21402E+02</wgt>
<wgt id='8026'>0.21384E+02</wgt>
<wgt id='8027'>0.21314E+02</wgt>
<wgt id='8028'>0.21365E+02</wgt>
<wgt id='8029'>0.21200E+02</wgt>
<wgt id='8500'>0.22370E+02</wgt>
<wgt id='8501'>0.22297E+02</wgt>
<wgt id='8502'>0.22497E+02</wgt>
<wgt id='8503'>0.22477E+02</wgt>
<wgt id='8504'>0.22327E+02</wgt>
<wgt id='8505'>0.22331E+02</wgt>
<wgt id='8506'>0.22336E+02</wgt>
<wgt id='8507'>0.22458E+02</wgt>
<wgt id='8508'>0.22530E+02</wgt>
<wgt id='8509'>0.22319E+02</wgt>
<wgt id='8510'>0.22659E+02</wgt>
<wgt id='8511'>0.22381E+02</wgt>
<wgt id='8512'>0.22171E+02</wgt>
<wgt id='8513'>0.22398E+02</wgt>
<wgt id='8514'>0.22188E+02</wgt>
<wgt id='8515'>0.22414E+02</wgt>
<wgt id='8516'>0.22410E+02</wgt>
<wgt id='8517'>0.22284E+02</wgt>
<wgt id='8518'>0.22312E+02</wgt>
<wgt id='8519'>0.22316E+02</wgt>
<wgt id='8520'>0.22372E+02</wgt>
<wgt id='8521'>0.22258E+02</wgt>
<wgt id='8522'>0.22394E+02</wgt>
<wgt id='8523'>0.22319E+02</wgt>
<wgt id='8524'>0.22358E+02</wgt>
<wgt id='8525'>0.22350E+02</wgt>
<wgt id='8526'>0.22343E+02</wgt>
<wgt id='8527'>0.22377E+02</wgt>
<wgt id='8528'>0.22313E+02</wgt>
<wgt id='8529'>0.22349E+02</wgt>
<wgt id='8530'>0.22363E+02</wgt>
<wgt id='8531'>0.22362E+02</wgt>
<wgt id='8532'>0.22372E+02</wgt>
<wgt id='8533'>0.22327E+02</wgt>
<wgt id='8534'>0.22377E+02</wgt>
<wgt id='8535'>0.22420E+02</wgt>
<wgt id='8536'>0.22353E+02</wgt>
<wgt id='8537'>0.22377E+02</wgt>
<wgt id='8538'>0.22352E+02</wgt>
<wgt id='8539'>0.22374E+02</wgt>
<wgt id='8540'>0.22372E+02</wgt>
<wgt id='8541'>0.22380E+02</wgt>
<wgt id='8542'>0.22385E+02</wgt>
<wgt id='8543'>0.22351E+02</wgt>
<wgt id='8544'>0.22388E+02</wgt>
<wgt id='8545'>0.22387E+02</wgt>
<wgt id='8546'>0.22393E+02</wgt>
<wgt id='8547'>0.22354E+02</wgt>
<wgt id='8548'>0.22350E+02</wgt>
<wgt id='8549'>0.22370E+02</wgt>
<wgt id='8550'>0.22371E+02</wgt>
<wgt id='8551'>0.22349E+02</wgt>
<wgt id='8552'>0.22373E+02</wgt>
<wgt id='8553'>0.22359E+02</wgt>
<wgt id='8554'>0.22361E+02</wgt>
<wgt id='8555'>0.22371E+02</wgt>
<wgt id='8556'>0.22368E+02</wgt>
<wgt id='8557'>0.22365E+02</wgt>
<wgt id='8558'>0.22394E+02</wgt>
<wgt id='8559'>0.22358E+02</wgt>
<wgt id='8560'>0.22345E+02</wgt>
<wgt id='8561'>0.22366E+02</wgt>
<wgt id='8562'>0.22352E+02</wgt>
<wgt id='8563'>0.22371E+02</wgt>
<wgt id='8564'>0.22364E+02</wgt>
<wgt id='8565'>0.22369E+02</wgt>
<wgt id='8566'>0.22367E+02</wgt>
<wgt id='8567'>0.22367E+02</wgt>
<wgt id='8568'>0.22378E+02</wgt>
<wgt id='8569'>0.22376E+02</wgt>
<wgt id='8570'>0.22369E+02</wgt>
<wgt id='8571'>0.22360E+02</wgt>
<wgt id='8572'>0.22362E+02</wgt>
<wgt id='8573'>0.22360E+02</wgt>
<wgt id='8574'>0.22375E+02</wgt>
<wgt id='8575'>0.22368E+02</wgt>
<wgt id='8576'>0.22368E+02</wgt>
<wgt id='8577'>0.22369E+02</wgt>
<wgt id='8578'>0.22372E+02</wgt>
<wgt id='8579'>0.22384E+02</wgt>
<wgt id='8580'>0.22370E+02</wgt>
<wgt id='8581'>0.22374E+02</wgt>
<wgt id='8582'>0.22355E+02</wgt>
<wgt id='8583'>0.22379E+02</wgt>
<wgt id='8584'>0.22375E+02</wgt>
<wgt id='8585'>0.22374E+02</wgt>
<wgt id='8586'>0.22381E+02</wgt>
<wgt id='8587'>0.22366E+02</wgt>
<wgt id='8588'>0.22364E+02</wgt>
<wgt id='8589'>0.22371E+02</wgt>
<wgt id='8590'>0.22367E+02</wgt>
<wgt id='8591'>0.22367E+02</wgt>
<wgt id='8592'>0.22370E+02</wgt>
<wgt id='8593'>0.22361E+02</wgt>
<wgt id='8594'>0.22373E+02</wgt>
<wgt id='8595'>0.22372E+02</wgt>
<wgt id='8596'>0.22364E+02</wgt>
<wgt id='8597'>0.22373E+02</wgt>
<wgt id='8598'>0.22375E+02</wgt>
<wgt id='8599'>0.22373E+02</wgt>
<wgt id='8600'>0.22370E+02</wgt>
<wgt id='8601'>0.21841E+02</wgt>
<wgt id='8602'>0.22857E+02</wgt>
<wgt id='9000'>0.21168E+02</wgt>
<wgt id='9001'>0.21182E+02</wgt>
<wgt id='9002'>0.21245E+02</wgt>
<wgt id='9003'>0.21040E+02</wgt>
<wgt id='9004'>0.21142E+02</wgt>
<wgt id='9005'>0.21217E+02</wgt>
<wgt id='9006'>0.21154E+02</wgt>
<wgt id='9007'>0.21220E+02</wgt>
<wgt id='9008'>0.21212E+02</wgt>
<wgt id='9009'>0.21150E+02</wgt>
<wgt id='9010'>0.21109E+02</wgt>
<wgt id='9011'>0.21375E+02</wgt>
<wgt id='9012'>0.21009E+02</wgt>
<wgt id='9013'>0.20920E+02</wgt>
<wgt id='9014'>0.21014E+02</wgt>
<wgt id='9015'>0.21164E+02</wgt>
<wgt id='9016'>0.21345E+02</wgt>
<wgt id='9017'>0.21133E+02</wgt>
<wgt id='9018'>0.21127E+02</wgt>
<wgt id='9019'>0.21138E+02</wgt>
<wgt id='9020'>0.21270E+02</wgt>
<wgt id='9021'>0.21135E+02</wgt>
<wgt id='9022'>0.21199E+02</wgt>
<wgt id='9023'>0.21121E+02</wgt>
<wgt id='9024'>0.21138E+02</wgt>
<wgt id='9025'>0.21191E+02</wgt>
<wgt id='9026'>0.21166E+02</wgt>
<wgt id='9027'>0.21139E+02</wgt>
<wgt id='9028'>0.21189E+02</wgt>
<wgt id='9029'>0.21193E+02</wgt>
<wgt id='9030'>0.21172E+02</wgt>
<wgt id='9031'>0.21161E+02</wgt>
<wgt id='9032'>0.21187E+02</wgt>
<wgt id='9033'>0.21195E+02</wgt>
<wgt id='9034'>0.21161E+02</wgt>
<wgt id='9035'>0.21202E+02</wgt>
<wgt id='9036'>0.21171E+02</wgt>
<wgt id='9037'>0.21188E+02</wgt>
<wgt id='9038'>0.21173E+02</wgt>
<wgt id='9039'>0.21171E+02</wgt>
<wgt id='9040'>0.21147E+02</wgt>
<wgt id='9041'>0.21160E+02</wgt>
<wgt id='9042'>0.21165E+02</wgt>
<wgt id='9043'>0.21153E+02</wgt>
<wgt id='9044'>0.21175E+02</wgt>
<wgt id='9045'>0.21167E+02</wgt>
<wgt id='9046'>0.21142E+02</wgt>
<wgt id='9047'>0.21161E+02</wgt>
<wgt id='9048'>0.21175E+02</wgt>
<wgt id='9049'>0.21156E+02</wgt>
<wgt id='9050'>0.21172E+02</wgt>
<wgt id='9051'>0.21179E+02</wgt>
<wgt id='9052'>0.21175E+02</wgt>
<wgt id='9053'>0.21171E+02</wgt>
<wgt id='9054'>0.21159E+02</wgt>
<wgt id='9055'>0.21163E+02</wgt>
<wgt id='9056'>0.21186E+02</wgt>
<wgt id='9057'>0.21168E+02</wgt>
<wgt id='9058'>0.21153E+02</wgt>
<wgt id='9059'>0.21160E+02</wgt>
<wgt id='9060'>0.21161E+02</wgt>
<wgt id='9061'>0.21171E+02</wgt>
<wgt id='9062'>0.21171E+02</wgt>
<wgt id='9063'>0.21178E+02</wgt>
<wgt id='9064'>0.21163E+02</wgt>
<wgt id='9065'>0.21168E+02</wgt>
<wgt id='9066'>0.21171E+02</wgt>
<wgt id='9067'>0.21175E+02</wgt>
<wgt id='9068'>0.21175E+02</wgt>
<wgt id='9069'>0.21180E+02</wgt>
<wgt id='9070'>0.21166E+02</wgt>
<wgt id='9071'>0.21182E+02</wgt>
<wgt id='9072'>0.21182E+02</wgt>
<wgt id='9073'>0.21163E+02</wgt>
<wgt id='9074'>0.21171E+02</wgt>
<wgt id='9075'>0.21167E+02</wgt>
<wgt id='9076'>0.21167E+02</wgt>
<wgt id='9077'>0.21172E+02</wgt>
<wgt id='9078'>0.21170E+02</wgt>
<wgt id='9079'>0.21165E+02</wgt>
<wgt id='9080'>0.21183E+02</wgt>
<wgt id='9081'>0.21166E+02</wgt>
<wgt id='9082'>0.21174E+02</wgt>
<wgt id='9083'>0.21161E+02</wgt>
<wgt id='9084'>0.21162E+02</wgt>
<wgt id='9085'>0.21163E+02</wgt>
<wgt id='9086'>0.21172E+02</wgt>
<wgt id='9087'>0.21155E+02</wgt>
<wgt id='9088'>0.21164E+02</wgt>
<wgt id='9089'>0.21163E+02</wgt>
<wgt id='9090'>0.21172E+02</wgt>
<wgt id='9091'>0.21166E+02</wgt>
<wgt id='9092'>0.21168E+02</wgt>
<wgt id='9093'>0.21165E+02</wgt>
<wgt id='9094'>0.21167E+02</wgt>
<wgt id='9095'>0.21171E+02</wgt>
<wgt id='9096'>0.21164E+02</wgt>
<wgt id='9097'>0.21170E+02</wgt>
<wgt id='9098'>0.21168E+02</wgt>
<wgt id='9099'>0.21164E+02</wgt>
<wgt id='9100'>0.21168E+02</wgt>
<wgt id='9101'>0.20747E+02</wgt>
<wgt id='9102'>0.21562E+02</wgt>
<wgt id='10000'>0.22383E+02</wgt>
<wgt id='10001'>0.22467E+02</wgt>
<wgt id='10002'>0.22322E+02</wgt>
<wgt id='10003'>0.22378E+02</wgt>
<wgt id='10004'>0.22354E+02</wgt>
<wgt id='10005'>0.22849E+02</wgt>
<wgt id='10006'>0.22353E+02</wgt>
<wgt id='10007'>0.22372E+02</wgt>
<wgt id='10008'>0.22410E+02</wgt>
<wgt id='10009'>0.22342E+02</wgt>
<wgt id='10010'>0.22404E+02</wgt>
<wgt id='10011'>0.22360E+02</wgt>
<wgt id='10012'>0.22349E+02</wgt>
<wgt id='10013'>0.22381E+02</wgt>
<wgt id='10014'>0.22374E+02</wgt>
<wgt id='10015'>0.22405E+02</wgt>
<wgt id='10016'>0.22369E+02</wgt>
<wgt id='10017'>0.22254E+02</wgt>
<wgt id='10018'>0.22405E+02</wgt>
<wgt id='10019'>0.22357E+02</wgt>
<wgt id='10020'>0.22366E+02</wgt>
<wgt id='10021'>0.22376E+02</wgt>
<wgt id='10022'>0.22370E+02</wgt>
<wgt id='10023'>0.22386E+02</wgt>
<wgt id='10024'>0.22368E+02</wgt>
<wgt id='10025'>0.22369E+02</wgt>
<wgt id='10026'>0.22414E+02</wgt>
<wgt id='10027'>0.22410E+02</wgt>
<wgt id='10028'>0.22509E+02</wgt>
<wgt id='10029'>0.22410E+02</wgt>
<wgt id='10030'>0.22377E+02</wgt>
<wgt id='10031'>0.21841E+02</wgt>
<wgt id='10032'>0.22857E+02</wgt>
<wgt id='11000'>0.21179E+02</wgt>
<wgt id='11001'>0.21095E+02</wgt>
<wgt id='11002'>0.21249E+02</wgt>
<wgt id='11003'>0.21156E+02</wgt>
<wgt id='11004'>0.21247E+02</wgt>
<wgt id='11005'>0.20953E+02</wgt>
<wgt id='11006'>0.21185E+02</wgt>
<wgt id='11007'>0.21133E+02</wgt>
<wgt id='11008'>0.21128E+02</wgt>
<wgt id='11009'>0.21101E+02</wgt>
<wgt id='11010'>0.21289E+02</wgt>
<wgt id='11011'>0.21093E+02</wgt>
<wgt id='11012'>0.21197E+02</wgt>
<wgt id='11013'>0.21240E+02</wgt>
<wgt id='11014'>0.21132E+02</wgt>
<wgt id='11015'>0.21161E+02</wgt>
<wgt id='11016'>0.21159E+02</wgt>
<wgt id='11017'>0.21320E+02</wgt>
<wgt id='11018'>0.21172E+02</wgt>
<wgt id='11019'>0.21170E+02</wgt>
<wgt id='11020'>0.21223E+02</wgt>
<wgt id='11021'>0.21225E+02</wgt>
<wgt id='11022'>0.21518E+02</wgt>
<wgt id='11023'>0.21183E+02</wgt>
<wgt id='11024'>0.21185E+02</wgt>
<wgt id='11025'>0.21160E+02</wgt>
<wgt id='11026'>0.21184E+02</wgt>
<wgt id='11027'>0.21174E+02</wgt>
<wgt id='11028'>0.21188E+02</wgt>
<wgt id='11029'>0.21188E+02</wgt>
<wgt id='11030'>0.21179E+02</wgt>
<wgt id='11031'>0.20747E+02</wgt>
<wgt id='11032'>0.21562E+02</wgt>
<wgt id='12000'>0.23501E+02</wgt>
<wgt id='12001'>0.23470E+02</wgt>
<wgt id='12002'>0.23532E+02</wgt>
<wgt id='12003'>0.23560E+02</wgt>
<wgt id='12004'>0.23443E+02</wgt>
<wgt id='12005'>0.23535E+02</wgt>
<wgt id='12006'>0.23467E+02</wgt>
<wgt id='12007'>0.23560E+02</wgt>
<wgt id='12008'>0.23444E+02</wgt>
<wgt id='12009'>0.23530E+02</wgt>
<wgt id='12010'>0.23473E+02</wgt>
<wgt id='12011'>0.23436E+02</wgt>
<wgt id='12012'>0.23568E+02</wgt>
<wgt id='12013'>0.23418E+02</wgt>
<wgt id='12014'>0.23585E+02</wgt>
<wgt id='12015'>0.23510E+02</wgt>
<wgt id='12016'>0.23480E+02</wgt>
<wgt id='12017'>0.23579E+02</wgt>
<wgt id='12018'>0.23415E+02</wgt>
<wgt id='12019'>0.23442E+02</wgt>
<wgt id='12020'>0.23559E+02</wgt>
<wgt id='12021'>0.23581E+02</wgt>
<wgt id='12022'>0.23397E+02</wgt>
<wgt id='12023'>0.23385E+02</wgt>
<wgt id='12024'>0.23508E+02</wgt>
<wgt id='12025'>0.23532E+02</wgt>
<wgt id='12026'>0.23502E+02</wgt>
<wgt id='12027'>0.23538E+02</wgt>
<wgt id='12028'>0.23486E+02</wgt>
<wgt id='12050'>0.23501E+02</wgt>
<wgt id='12051'>0.23497E+02</wgt>
<wgt id='12052'>0.23492E+02</wgt>
<wgt id='12053'>0.23492E+02</wgt>
<wgt id='12054'>0.23496E+02</wgt>
<wgt id='12055'>0.23582E+02</wgt>
<wgt id='12056'>0.23401E+02</wgt>
<wgt id='12057'>0.23423E+02</wgt>
<wgt id='12058'>0.23578E+02</wgt>
<wgt id='12059'>0.23464E+02</wgt>
<wgt id='12060'>0.23546E+02</wgt>
<wgt id='12061'>0.23485E+02</wgt>
<wgt id='12062'>0.23540E+02</wgt>
<wgt id='12063'>0.23301E+02</wgt>
<wgt id='13000'>0.21487E+02</wgt>
<wgt id='13001'>0.21471E+02</wgt>
<wgt id='13002'>0.21500E+02</wgt>
<wgt id='13003'>0.21518E+02</wgt>
<wgt id='13004'>0.21453E+02</wgt>
<wgt id='13005'>0.21535E+02</wgt>
<wgt id='13006'>0.21436E+02</wgt>
<wgt id='13007'>0.21572E+02</wgt>
<wgt id='13008'>0.21401E+02</wgt>
<wgt id='13009'>0.21475E+02</wgt>
<wgt id='13010'>0.21497E+02</wgt>
<wgt id='13011'>0.21541E+02</wgt>
<wgt id='13012'>0.21430E+02</wgt>
<wgt id='13013'>0.21428E+02</wgt>
<wgt id='13014'>0.21543E+02</wgt>
<wgt id='13015'>0.21466E+02</wgt>
<wgt id='13016'>0.21502E+02</wgt>
<wgt id='13017'>0.21472E+02</wgt>
<wgt id='13018'>0.21495E+02</wgt>
<wgt id='13019'>0.21454E+02</wgt>
<wgt id='13020'>0.21515E+02</wgt>
<wgt id='13021'>0.21351E+02</wgt>
<wgt id='13022'>0.21591E+02</wgt>
<wgt id='13023'>0.21466E+02</wgt>
<wgt id='13024'>0.21502E+02</wgt>
<wgt id='13025'>0.21391E+02</wgt>
<wgt id='13026'>0.21529E+02</wgt>
<wgt id='13027'>0.21472E+02</wgt>
<wgt id='13028'>0.21522E+02</wgt>
<wgt id='13050'>0.21487E+02</wgt>
<wgt id='13051'>0.21498E+02</wgt>
<wgt id='13052'>0.21423E+02</wgt>
<wgt id='13053'>0.21490E+02</wgt>
<wgt id='13054'>0.21475E+02</wgt>
<wgt id='13055'>0.21397E+02</wgt>
<wgt id='13056'>0.21499E+02</wgt>
<wgt id='13057'>0.21419E+02</wgt>
<wgt id='13058'>0.21593E+02</wgt>
<wgt id='13059'>0.21425E+02</wgt>
<wgt id='13060'>0.21443E+02</wgt>
<wgt id='13061'>0.21423E+02</wgt>
<wgt id='13062'>0.21653E+02</wgt>
<wgt id='13063'>0.21405E+02</wgt>
<wgt id='14000'>0.22100E+02</wgt>
<wgt id='14001'>0.22096E+02</wgt>
<wgt id='14002'>0.22093E+02</wgt>
<wgt id='14003'>0.22090E+02</wgt>
<wgt id='14004'>0.22086E+02</wgt>
<wgt id='14005'>0.22083E+02</wgt>
<wgt id='14006'>0.22079E+02</wgt>
<wgt id='14007'>0.22076E+02</wgt>
<wgt id='14008'>0.22072E+02</wgt>
<wgt id='14009'>0.22069E+02</wgt>
<wgt id='14010'>0.22066E+02</wgt>
<wgt id='14011'>0.22062E+02</wgt>
<wgt id='14012'>0.22059E+02</wgt>
<wgt id='14013'>0.22055E+02</wgt>
<wgt id='14014'>0.22052E+02</wgt>
<wgt id='14015'>0.22048E+02</wgt>
<wgt id='14016'>0.22045E+02</wgt>
<wgt id='14017'>0.22041E+02</wgt>
<wgt id='14018'>0.22038E+02</wgt>
<wgt id='14019'>0.22035E+02</wgt>
<wgt id='14020'>0.22031E+02</wgt>
<wgt id='14021'>0.22028E+02</wgt>
<wgt id='14022'>0.22024E+02</wgt>
<wgt id='14023'>0.22021E+02</wgt>
<wgt id='14024'>0.22017E+02</wgt>
<wgt id='14025'>0.22014E+02</wgt>
<wgt id='14026'>0.22011E+02</wgt>
<wgt id='14027'>0.22007E+02</wgt>
<wgt id='14028'>0.22004E+02</wgt>
<wgt id='14029'>0.22000E+02</wgt>
<wgt id='14030'>0.21997E+02</wgt>
<wgt id='15000'>0.20910E+02</wgt>
<wgt id='15001'>0.20923E+02</wgt>
<wgt id='15002'>0.20985E+02</wgt>
<wgt id='15003'>0.20783E+02</wgt>
<wgt id='15004'>0.20883E+02</wgt>
<wgt id='15005'>0.20958E+02</wgt>
<wgt id='15006'>0.20895E+02</wgt>
<wgt id='15007'>0.20960E+02</wgt>
<wgt id='15008'>0.20952E+02</wgt>
<wgt id='15009'>0.20892E+02</wgt>
<wgt id='15010'>0.20851E+02</wgt>
<wgt id='15011'>0.21115E+02</wgt>
<wgt id='15012'>0.20753E+02</wgt>
<wgt id='15013'>0.20663E+02</wgt>
<wgt id='15014'>0.20757E+02</wgt>
<wgt id='15015'>0.20905E+02</wgt>
<wgt id='15016'>0.21086E+02</wgt>
<wgt id='15017'>0.20876E+02</wgt>
<wgt id='15018'>0.20869E+02</wgt>
<wgt id='15019'>0.20880E+02</wgt>
<wgt id='15020'>0.21010E+02</wgt>
<wgt id='15021'>0.20873E+02</wgt>
<wgt id='15022'>0.20940E+02</wgt>
<wgt id='15023'>0.20861E+02</wgt>
<wgt id='15024'>0.20880E+02</wgt>
<wgt id='15025'>0.20933E+02</wgt>
<wgt id='15026'>0.20907E+02</wgt>
<wgt id='15027'>0.20879E+02</wgt>
<wgt id='15028'>0.20930E+02</wgt>
<wgt id='15029'>0.20935E+02</wgt>
<wgt id='15030'>0.20911E+02</wgt>
<wgt id='15031'>0.20902E+02</wgt>
<wgt id='15032'>0.20929E+02</wgt>
<wgt id='15033'>0.20936E+02</wgt>
<wgt id='15034'>0.20902E+02</wgt>
<wgt id='15035'>0.20943E+02</wgt>
<wgt id='15036'>0.20912E+02</wgt>
<wgt id='15037'>0.20929E+02</wgt>
<wgt id='15038'>0.20914E+02</wgt>
<wgt id='15039'>0.20913E+02</wgt>
<wgt id='15040'>0.20888E+02</wgt>
<wgt id='15041'>0.20901E+02</wgt>
<wgt id='15042'>0.20907E+02</wgt>
<wgt id='15043'>0.20894E+02</wgt>
<wgt id='15044'>0.20916E+02</wgt>
<wgt id='15045'>0.20909E+02</wgt>
<wgt id='15046'>0.20883E+02</wgt>
<wgt id='15047'>0.20903E+02</wgt>
<wgt id='15048'>0.20916E+02</wgt>
<wgt id='15049'>0.20897E+02</wgt>
<wgt id='15050'>0.20914E+02</wgt>
<wgt id='15051'>0.20920E+02</wgt>
<wgt id='15052'>0.20916E+02</wgt>
<wgt id='15053'>0.20912E+02</wgt>
<wgt id='15054'>0.20900E+02</wgt>
<wgt id='15055'>0.20904E+02</wgt>
<wgt id='15056'>0.20927E+02</wgt>
<wgt id='15057'>0.20909E+02</wgt>
<wgt id='15058'>0.20894E+02</wgt>
<wgt id='15059'>0.20901E+02</wgt>
<wgt id='15060'>0.20902E+02</wgt>
<wgt id='15061'>0.20912E+02</wgt>
<wgt id='15062'>0.20913E+02</wgt>
<wgt id='15063'>0.20919E+02</wgt>
<wgt id='15064'>0.20905E+02</wgt>
<wgt id='15065'>0.20909E+02</wgt>
<wgt id='15066'>0.20912E+02</wgt>
<wgt id='15067'>0.20916E+02</wgt>
<wgt id='15068'>0.20916E+02</wgt>
<wgt id='15069'>0.20921E+02</wgt>
<wgt id='15070'>0.20907E+02</wgt>
<wgt id='15071'>0.20923E+02</wgt>
<wgt id='15072'>0.20923E+02</wgt>
<wgt id='15073'>0.20904E+02</wgt>
<wgt id='15074'>0.20913E+02</wgt>
<wgt id='15075'>0.20908E+02</wgt>
<wgt id='15076'>0.20908E+02</wgt>
<wgt id='15077'>0.20913E+02</wgt>
<wgt id='15078'>0.20912E+02</wgt>
<wgt id='15079'>0.20906E+02</wgt>
<wgt id='15080'>0.20924E+02</wgt>
<wgt id='15081'>0.20907E+02</wgt>
<wgt id='15082'>0.20915E+02</wgt>
<wgt id='15083'>0.20903E+02</wgt>
<wgt id='15084'>0.20903E+02</wgt>
<wgt id='15085'>0.20904E+02</wgt>
<wgt id='15086'>0.20913E+02</wgt>
<wgt id='15087'>0.20896E+02</wgt>
<wgt id='15088'>0.20905E+02</wgt>
<wgt id='15089'>0.20905E+02</wgt>
<wgt id='15090'>0.20913E+02</wgt>
<wgt id='15091'>0.20907E+02</wgt>
<wgt id='15092'>0.20909E+02</wgt>
<wgt id='15093'>0.20906E+02</wgt>
<wgt id='15094'>0.20908E+02</wgt>
<wgt id='15095'>0.20912E+02</wgt>
<wgt id='15096'>0.20905E+02</wgt>
<wgt id='15097'>0.20911E+02</wgt>
<wgt id='15098'>0.20910E+02</wgt>
<wgt id='15099'>0.20905E+02</wgt>
<wgt id='15100'>0.20909E+02</wgt>
<wgt id='15101'>0.20909E+02</wgt>
<wgt id='15102'>0.20908E+02</wgt>
<wgt id='15103'>0.20910E+02</wgt>
<wgt id='15104'>0.20910E+02</wgt>
<wgt id='15105'>0.20911E+02</wgt>
<wgt id='15106'>0.20910E+02</wgt>
<wgt id='15107'>0.20909E+02</wgt>
<wgt id='1500'>0.22372E+02</wgt>
<wgt id='1501'>0.20667E+02</wgt>
<wgt id='1502'>0.22265E+02</wgt>
<wgt id='1503'>0.22424E+02</wgt>
<wgt id='1504'>0.22081E+02</wgt>
<wgt id='1505'>0.20042E+02</wgt>
<wgt id='1506'>0.22725E+02</wgt>
<wgt id='1507'>0.22543E+02</wgt>
<wgt id='1508'>0.22572E+02</wgt>
<wgt id='1509'>0.22532E+02</wgt>
<wgt id='1510'>0.21737E+02</wgt>
<wgt id='1511'>0.21873E+02</wgt>
<wgt id='1512'>0.22752E+02</wgt>
<wgt id='1513'>0.22786E+02</wgt>
<wgt id='1514'>0.22017E+02</wgt>
<wgt id='1515'>0.22748E+02</wgt>
<wgt id='1516'>0.22567E+02</wgt>
<wgt id='1517'>0.22195E+02</wgt>
<wgt id='1518'>0.22199E+02</wgt>
<wgt id='1519'>0.22693E+02</wgt>
<wgt id='1520'>0.22788E+02</wgt>
<wgt id='1521'>0.22570E+02</wgt>
<wgt id='1522'>0.22197E+02</wgt>
<wgt id='1523'>0.24005E+02</wgt>
<wgt id='1524'>0.22331E+02</wgt>
<wgt id='1525'>0.22512E+02</wgt>
<wgt id='1526'>0.22173E+02</wgt>
<wgt id='1527'>0.22102E+02</wgt>
<wgt id='1528'>0.22196E+02</wgt>
<wgt id='1529'>0.22323E+02</wgt>
<wgt id='1530'>0.22877E+02</wgt>
<wgt id='1531'>0.22334E+02</wgt>
<wgt id='1532'>0.21863E+02</wgt>
<wgt id='1533'>0.22325E+02</wgt>
<wgt id='1534'>0.22503E+02</wgt>
<wgt id='1535'>0.22925E+02</wgt>
<wgt id='1536'>0.22647E+02</wgt>
<wgt id='1537'>0.22768E+02</wgt>
<wgt id='1538'>0.22602E+02</wgt>
<wgt id='1539'>0.21778E+02</wgt>
<wgt id='1540'>0.22588E+02</wgt>
<wgt id='1541'>0.22423E+02</wgt>
<wgt id='1542'>0.22391E+02</wgt>
<wgt id='1543'>0.22528E+02</wgt>
<wgt id='1544'>0.22277E+02</wgt>
<wgt id='1545'>0.22368E+02</wgt>
<wgt id='1546'>0.22697E+02</wgt>
<wgt id='1547'>0.22078E+02</wgt>
<wgt id='1548'>0.22136E+02</wgt>
<wgt id='1549'>0.22183E+02</wgt>
<wgt id='1550'>0.22306E+02</wgt>
<wgt id='1551'>0.22341E+02</wgt>
<wgt id='1552'>0.22134E+02</wgt>
<wgt id='1553'>0.22676E+02</wgt>
<wgt id='1554'>0.22505E+02</wgt>
<wgt id='1555'>0.22212E+02</wgt>
<wgt id='1556'>0.21969E+02</wgt>
<wgt id='1557'>0.22836E+02</wgt>
<wgt id='1558'>0.22135E+02</wgt>
<wgt id='1559'>0.22688E+02</wgt>
<wgt id='1560'>0.22291E+02</wgt>
<wgt id='1561'>0.22386E+02</wgt>
<wgt id='1562'>0.22416E+02</wgt>
<wgt id='1563'>0.22613E+02</wgt>
<wgt id='1564'>0.21937E+02</wgt>
<wgt id='1565'>0.22545E+02</wgt>
<wgt id='1566'>0.22534E+02</wgt>
<wgt id='1567'>0.23716E+02</wgt>
<wgt id='1568'>0.22084E+02</wgt>
<wgt id='1569'>0.21809E+02</wgt>
<wgt id='1570'>0.22258E+02</wgt>
<wgt id='1571'>0.22536E+02</wgt>
<wgt id='1572'>0.22515E+02</wgt>
<wgt id='1573'>0.21043E+02</wgt>
<wgt id='1574'>0.22646E+02</wgt>
<wgt id='1575'>0.22174E+02</wgt>
<wgt id='1576'>0.22026E+02</wgt>
<wgt id='1577'>0.22621E+02</wgt>
<wgt id='1578'>0.23065E+02</wgt>
<wgt id='1579'>0.22176E+02</wgt>
<wgt id='1580'>0.22418E+02</wgt>
<wgt id='1581'>0.22544E+02</wgt>
<wgt id='1582'>0.22099E+02</wgt>
<wgt id='1583'>0.22710E+02</wgt>
<wgt id='1584'>0.22329E+02</wgt>
<wgt id='1585'>0.21891E+02</wgt>
<wgt id='1586'>0.22265E+02</wgt>
<wgt id='1587'>0.22384E+02</wgt>
<wgt id='1588'>0.22330E+02</wgt>
<wgt id='1589'>0.22998E+02</wgt>
<wgt id='1590'>0.22254E+02</wgt>
<wgt id='1591'>0.22091E+02</wgt>
<wgt id='1592'>0.22530E+02</wgt>
<wgt id='1593'>0.22265E+02</wgt>
<wgt id='1594'>0.22844E+02</wgt>
<wgt id='1595'>0.22013E+02</wgt>
<wgt id='1596'>0.22701E+02</wgt>
<wgt id='1597'>0.22320E+02</wgt>
<wgt id='1598'>0.22996E+02</wgt>
<wgt id='1599'>0.22796E+02</wgt>
<wgt id='1600'>0.22535E+02</wgt>
<wgt id='1601'>0.21972E+02</wgt>
<wgt id='1602'>0.22642E+02</wgt>
<wgt id='1700'>0.21395E+02</wgt>
<wgt id='1800'>0.25893E+02</wgt>
<wgt id='1850'>0.32249E+02</wgt>
<wgt id='1900'>0.26538E+02</wgt>
<wgt id='1950'>0.31798E+02</wgt>
</rwgt>
</event>
<event>
      4   9999  2.16956E+01  2.59101E+01 -1.00000E+00  1.55004E-01
      21    -1     0     0   502   512  0.000000000E+00  0.000000000E+00  6.552081449E+01  6.552081449E+01  0.000000000E+00  0.00000E+00  9.000E+00
      21    -1     0     0   501   502  0.000000000E+00  0.000000000E+00 -2.677488367E+02  2.677488367E+02  0.000000000E+00  0.00000E+00  9.000E+00
      25     1     1     2     0     0 -1.470670473E+01  2.133185002E+01 -2.489909250E+02  2.798084122E+02  1.249997271E+02  0.00000E+00  9.000E+00
      21     1     1     2   501   512  1.470670473E+01 -2.133185002E+01  4.676290287E+01  5.346123899E+01  6.743495762E-07  0.00000E+00  9.000E+00
#rwgt            1           1   18.244796683343417                1        4638           0
<rwgt>
<wgt id='1001'>0.21696E+02</wgt>
<wgt id='1002'>0.23827E+02</wgt>
<wgt id='1003'>0.19414E+02</wgt>
<wgt id='1004'>0.18423E+02</wgt>
<wgt id='1005'>0.20109E+02</wgt>
<wgt id='1006'>0.16587E+02</wgt>
<wgt id='1007'>0.25932E+02</wgt>
<wgt id='1008'>0.28705E+02</wgt>
<wgt id='1009'>0.23019E+02</wgt>
<wgt id='2000'>0.21696E+02</wgt>
<wgt id='2001'>0.21661E+02</wgt>
<wgt id='2002'>0.21747E+02</wgt>
<wgt id='2003'>0.21728E+02</wgt>
<wgt id='2004'>0.21706E+02</wgt>
<wgt id='2005'>0.21680E+02</wgt>
<wgt id='2006'>0.21670E+02</wgt>
<wgt id='2007'>0.21666E+02</wgt>
<wgt id='2008'>0.21710E+02</wgt>
<wgt id='2009'>0.21682E+02</wgt>
<wgt id='2010'>0.21671E+02</wgt>
<wgt id='2011'>0.21749E+02</wgt>
<wgt id='2012'>0.21752E+02</wgt>
<wgt id='2013'>0.21751E+02</wgt>
<wgt id='2014'>0.21741E+02</wgt>
<wgt id='2015'>0.21732E+02</wgt>
<wgt id='2016'>0.21706E+02</wgt>
<wgt id='2017'>0.21694E+02</wgt>
<wgt id='2018'>0.21733E+02</wgt>
<wgt id='2019'>0.21694E+02</wgt>
<wgt id='2020'>0.21771E+02</wgt>
<wgt id='2021'>0.21660E+02</wgt>
<wgt id='2022'>0.21766E+02</wgt>
<wgt id='2023'>0.21740E+02</wgt>
<wgt id='2024'>0.21693E+02</wgt>
<wgt id='2025'>0.21783E+02</wgt>
<wgt id='2026'>0.21755E+02</wgt>
<wgt id='2027'>0.21671E+02</wgt>
<wgt id='2028'>0.21653E+02</wgt>
<wgt id='2029'>0.21716E+02</wgt>
<wgt id='2030'>0.21700E+02</wgt>
<wgt id='2031'>0.21719E+02</wgt>
<wgt id='2032'>0.21681E+02</wgt>
<wgt id='2033'>0.21697E+02</wgt>
<wgt id='2034'>0.21712E+02</wgt>
<wgt id='2035'>0.21691E+02</wgt>
<wgt id='2036'>0.21708E+02</wgt>
<wgt id='2037'>0.21704E+02</wgt>
<wgt id='2038'>0.21701E+02</wgt>
<wgt id='2039'>0.21694E+02</wgt>
<wgt id='2040'>0.21708E+02</wgt>
<wgt id='2041'>0.21697E+02</wgt>
<wgt id='2042'>0.21673E+02</wgt>
<wgt id='2043'>0.21712E+02</wgt>
<wgt id='2044'>0.21709E+02</wgt>
<wgt id='2045'>0.21696E+02</wgt>
<wgt id='2046'>0.21702E+02</wgt>
<wgt id='2047'>0.21710E+02</wgt>
<wgt id='2048'>0.21698E+02</wgt>
<wgt id='2049'>0.21697E+02</wgt>
<wgt id='2050'>0.21701E+02</wgt>
<wgt id='2051'>0.21705E+02</wgt>
<wgt id='2052'>0.21686E+02</wgt>
<wgt id='2053'>0.21689E+02</wgt>
<wgt id='2054'>0.21692E+02</wgt>
<wgt id='2055'>0.21700E+02</wgt>
<wgt id='2056'>0.21696E+02</wgt>
<wgt id='2057'>0.21693E+02</wgt>
<wgt id='2058'>0.21703E+02</wgt>
<wgt id='2059'>0.21695E+02</wgt>
<wgt id='2060'>0.21702E+02</wgt>
<wgt id='2061'>0.21691E+02</wgt>
<wgt id='2062'>0.21692E+02</wgt>
<wgt id='2063'>0.21697E+02</wgt>
<wgt id='2064'>0.21688E+02</wgt>
<wgt id='2065'>0.21694E+02</wgt>
<wgt id='2066'>0.21688E+02</wgt>
<wgt id='2067'>0.21695E+02</wgt>
<wgt id='2068'>0.21699E+02</wgt>
<wgt id='2069'>0.21698E+02</wgt>
<wgt id='2070'>0.21697E+02</wgt>
<wgt id='2071'>0.21690E+02</wgt>
<wgt id='2072'>0.21698E+02</wgt>
<wgt id='2073'>0.21696E+02</wgt>
<wgt id='2074'>0.21696E+02</wgt>
<wgt id='2075'>0.21693E+02</wgt>
<wgt id='2076'>0.21698E+02</wgt>
<wgt id='2077'>0.21690E+02</wgt>
<wgt id='2078'>0.21697E+02</wgt>
<wgt id='2079'>0.21700E+02</wgt>
<wgt id='2080'>0.21695E+02</wgt>
<wgt id='2081'>0.21699E+02</wgt>
<wgt id='2082'>0.21697E+02</wgt>
<wgt id='2083'>0.21692E+02</wgt>
<wgt id='2084'>0.21695E+02</wgt>
<wgt id='2085'>0.21691E+02</wgt>
<wgt id='2086'>0.21697E+02</wgt>
<wgt id='2087'>0.21695E+02</wgt>
<wgt id='2088'>0.21696E+02</wgt>
<wgt id='2089'>0.21699E+02</wgt>
<wgt id='2090'>0.21698E+02</wgt>
<wgt id='2091'>0.21693E+02</wgt>
<wgt id='2092'>0.21694E+02</wgt>
<wgt id='2093'>0.21696E+02</wgt>
<wgt id='2094'>0.21694E+02</wgt>
<wgt id='2095'>0.21693E+02</wgt>
<wgt id='2096'>0.21695E+02</wgt>
<wgt id='2097'>0.21698E+02</wgt>
<wgt id='2098'>0.21693E+02</wgt>
<wgt id='2099'>0.21698E+02</wgt>
<wgt id='2100'>0.21694E+02</wgt>
<wgt id='2101'>0.21099E+02</wgt>
<wgt id='2102'>0.22249E+02</wgt>
<wgt id='2104'>0.18942E+02</wgt>
<wgt id='2105'>0.19446E+02</wgt>
<wgt id='2106'>0.20008E+02</wgt>
<wgt id='2107'>0.20577E+02</wgt>
<wgt id='2108'>0.21425E+02</wgt>
<wgt id='2109'>0.22010E+02</wgt>
<wgt id='2110'>0.22760E+02</wgt>
<wgt id='2111'>0.23327E+02</wgt>
<wgt id='3000'>0.22693E+02</wgt>
<wgt id='3001'>0.22742E+02</wgt>
<wgt id='3002'>0.22639E+02</wgt>
<wgt id='3003'>0.22731E+02</wgt>
<wgt id='3004'>0.22720E+02</wgt>
<wgt id='3005'>0.22735E+02</wgt>
<wgt id='3006'>0.22703E+02</wgt>
<wgt id='3007'>0.22690E+02</wgt>
<wgt id='3008'>0.22663E+02</wgt>
<wgt id='3009'>0.22630E+02</wgt>
<wgt id='3010'>0.22648E+02</wgt>
<wgt id='3011'>0.22724E+02</wgt>
<wgt id='3012'>0.22773E+02</wgt>
<wgt id='3013'>0.22625E+02</wgt>
<wgt id='3014'>0.22723E+02</wgt>
<wgt id='3015'>0.22700E+02</wgt>
<wgt id='3016'>0.22705E+02</wgt>
<wgt id='3017'>0.22727E+02</wgt>
<wgt id='3018'>0.22736E+02</wgt>
<wgt id='3019'>0.22647E+02</wgt>
<wgt id='3020'>0.22633E+02</wgt>
<wgt id='3021'>0.22617E+02</wgt>
<wgt id='3022'>0.22688E+02</wgt>
<wgt id='3023'>0.22641E+02</wgt>
<wgt id='3024'>0.22624E+02</wgt>
<wgt id='3025'>0.22692E+02</wgt>
<wgt id='3026'>0.22742E+02</wgt>
<wgt id='3027'>0.22699E+02</wgt>
<wgt id='3028'>0.22616E+02</wgt>
<wgt id='3029'>0.22674E+02</wgt>
<wgt id='3030'>0.22717E+02</wgt>
<wgt id='3031'>0.22705E+02</wgt>
<wgt id='3032'>0.22718E+02</wgt>
<wgt id='3033'>0.22717E+02</wgt>
<wgt id='3034'>0.22708E+02</wgt>
<wgt id='3035'>0.22710E+02</wgt>
<wgt id='3036'>0.22698E+02</wgt>
<wgt id='3037'>0.22696E+02</wgt>
<wgt id='3038'>0.22695E+02</wgt>
<wgt id='3039'>0.22680E+02</wgt>
<wgt id='3040'>0.22699E+02</wgt>
<wgt id='3041'>0.22700E+02</wgt>
<wgt id='3042'>0.22674E+02</wgt>
<wgt id='3043'>0.22677E+02</wgt>
<wgt id='3044'>0.22696E+02</wgt>
<wgt id='3045'>0.22706E+02</wgt>
<wgt id='3046'>0.22701E+02</wgt>
<wgt id='3047'>0.22687E+02</wgt>
<wgt id='3048'>0.22706E+02</wgt>
<wgt id='3049'>0.22690E+02</wgt>
<wgt id='3050'>0.22696E+02</wgt>
<wgt id='3051'>0.22713E+02</wgt>
<wgt id='3052'>0.22689E+02</wgt>
<wgt id='3053'>0.22688E+02</wgt>
<wgt id='3054'>0.22687E+02</wgt>
<wgt id='3055'>0.22696E+02</wgt>
<wgt id='3056'>0.22696E+02</wgt>
<wgt id='3057'>0.22682E+02</wgt>
<wgt id='3058'>0.22689E+02</wgt>
<wgt id='3059'>0.22691E+02</wgt>
<wgt id='3060'>0.22694E+02</wgt>
<wgt id='3061'>0.22696E+02</wgt>
<wgt id='3062'>0.22693E+02</wgt>
<wgt id='3063'>0.22698E+02</wgt>
<wgt id='3064'>0.22692E+02</wgt>
<wgt id='3065'>0.22698E+02</wgt>
<wgt id='3066'>0.22695E+02</wgt>
<wgt id='3067'>0.22689E+02</wgt>
<wgt id='3068'>0.22690E+02</wgt>
<wgt id='3069'>0.22684E+02</wgt>
<wgt id='3070'>0.22687E+02</wgt>
<wgt id='3071'>0.22695E+02</wgt>
<wgt id='3072'>0.22699E+02</wgt>
<wgt id='3073'>0.22695E+02</wgt>
<wgt id='3074'>0.22697E+02</wgt>
<wgt id='3075'>0.22699E+02</wgt>
<wgt id='3076'>0.22691E+02</wgt>
<wgt id='3077'>0.22689E+02</wgt>
<wgt id='3078'>0.22697E+02</wgt>
<wgt id='3079'>0.22689E+02</wgt>
<wgt id='3080'>0.22690E+02</wgt>
<wgt id='3081'>0.22690E+02</wgt>
<wgt id='3082'>0.22691E+02</wgt>
<wgt id='3083'>0.22693E+02</wgt>
<wgt id='3084'>0.22690E+02</wgt>
<wgt id='3085'>0.22696E+02</wgt>
<wgt id='3086'>0.22697E+02</wgt>
<wgt id='3087'>0.22693E+02</wgt>
<wgt id='3088'>0.22690E+02</wgt>
<wgt id='3089'>0.22693E+02</wgt>
<wgt id='3090'>0.22695E+02</wgt>
<wgt id='3091'>0.22691E+02</wgt>
<wgt id='3092'>0.22690E+02</wgt>
<wgt id='3093'>0.22693E+02</wgt>
<wgt id='3094'>0.22695E+02</wgt>
<wgt id='3095'>0.22693E+02</wgt>
<wgt id='3096'>0.22688E+02</wgt>
<wgt id='3097'>0.22690E+02</wgt>
<wgt id='3098'>0.22689E+02</wgt>
<wgt id='3099'>0.22693E+02</wgt>
<wgt id='3100'>0.22694E+02</wgt>
<wgt id='3101'>0.22067E+02</wgt>
<wgt id='3102'>0.23379E+02</wgt>
<wgt id='5000'>0.21024E+02</wgt>
<wgt id='5001'>0.20976E+02</wgt>
<wgt id='5002'>0.20981E+02</wgt>
<wgt id='5003'>0.20950E+02</wgt>
<wgt id='5004'>0.21013E+02</wgt>
<wgt id='5005'>0.20733E+02</wgt>
<wgt id='5006'>0.21067E+02</wgt>
<wgt id='5007'>0.21008E+02</wgt>
<wgt id='5008'>0.20908E+02</wgt>
<wgt id='5009'>0.21167E+02</wgt>
<wgt id='5010'>0.20936E+02</wgt>
<wgt id='5011'>0.21013E+02</wgt>
<wgt id='5012'>0.20995E+02</wgt>
<wgt id='5013'>0.20718E+02</wgt>
<wgt id='5014'>0.21099E+02</wgt>
<wgt id='5015'>0.21143E+02</wgt>
<wgt id='5016'>0.20649E+02</wgt>
<wgt id='5017'>0.20999E+02</wgt>
<wgt id='5018'>0.21052E+02</wgt>
<wgt id='5019'>0.20991E+02</wgt>
<wgt id='5020'>0.21057E+02</wgt>
<wgt id='5021'>0.21076E+02</wgt>
<wgt id='5022'>0.20990E+02</wgt>
<wgt id='5023'>0.20947E+02</wgt>
<wgt id='5024'>0.21103E+02</wgt>
<wgt id='5025'>0.21015E+02</wgt>
<wgt id='5026'>0.21031E+02</wgt>
<wgt id='5027'>0.21211E+02</wgt>
<wgt id='5028'>0.20707E+02</wgt>
<wgt id='5029'>0.20679E+02</wgt>
<wgt id='5030'>0.21231E+02</wgt>
<wgt id='5031'>0.20821E+02</wgt>
<wgt id='5032'>0.21316E+02</wgt>
<wgt id='5033'>0.20909E+02</wgt>
<wgt id='5034'>0.21120E+02</wgt>
<wgt id='5035'>0.20797E+02</wgt>
<wgt id='5036'>0.21210E+02</wgt>
<wgt id='5037'>0.20897E+02</wgt>
<wgt id='5038'>0.21158E+02</wgt>
<wgt id='5039'>0.21375E+02</wgt>
<wgt id='5040'>0.20845E+02</wgt>
<wgt id='5041'>0.20891E+02</wgt>
<wgt id='5042'>0.21029E+02</wgt>
<wgt id='5043'>0.21161E+02</wgt>
<wgt id='5044'>0.20601E+02</wgt>
<wgt id='5045'>0.21466E+02</wgt>
<wgt id='5046'>0.20865E+02</wgt>
<wgt id='5047'>0.21109E+02</wgt>
<wgt id='5048'>0.21131E+02</wgt>
<wgt id='5049'>0.21034E+02</wgt>
<wgt id='5050'>0.21061E+02</wgt>
<wgt id='5051'>0.21062E+02</wgt>
<wgt id='5052'>0.21019E+02</wgt>
<wgt id='5053'>0.20740E+02</wgt>
<wgt id='5054'>0.21130E+02</wgt>
<wgt id='5055'>0.20894E+02</wgt>
<wgt id='5056'>0.21201E+02</wgt>
<wgt id='5060'>0.20414E+02</wgt>
<wgt id='5070'>0.21600E+02</wgt>
<wgt id='4000'>0.22077E+02</wgt>
<wgt id='4001'>0.22093E+02</wgt>
<wgt id='4002'>0.22128E+02</wgt>
<wgt id='4003'>0.22261E+02</wgt>
<wgt id='4004'>0.21966E+02</wgt>
<wgt id='4005'>0.22137E+02</wgt>
<wgt id='4006'>0.22035E+02</wgt>
<wgt id='4007'>0.22225E+02</wgt>
<wgt id='4008'>0.22020E+02</wgt>
<wgt id='4009'>0.21746E+02</wgt>
<wgt id='4010'>0.22257E+02</wgt>
<wgt id='4011'>0.22376E+02</wgt>
<wgt id='4012'>0.21900E+02</wgt>
<wgt id='4013'>0.21420E+02</wgt>
<wgt id='4014'>0.22448E+02</wgt>
<wgt id='4015'>0.22319E+02</wgt>
<wgt id='4016'>0.21921E+02</wgt>
<wgt id='4017'>0.21828E+02</wgt>
<wgt id='4018'>0.22372E+02</wgt>
<wgt id='4019'>0.22319E+02</wgt>
<wgt id='4020'>0.21806E+02</wgt>
<wgt id='4021'>0.22118E+02</wgt>
<wgt id='4022'>0.21986E+02</wgt>
<wgt id='4023'>0.21998E+02</wgt>
<wgt id='4024'>0.22145E+02</wgt>
<wgt id='4025'>0.21922E+02</wgt>
<wgt id='4026'>0.22215E+02</wgt>
<wgt id='4027'>0.22022E+02</wgt>
<wgt id='4028'>0.22150E+02</wgt>
<wgt id='4029'>0.21946E+02</wgt>
<wgt id='4030'>0.22123E+02</wgt>
<wgt id='4031'>0.22114E+02</wgt>
<wgt id='4032'>0.22029E+02</wgt>
<wgt id='4033'>0.22041E+02</wgt>
<wgt id='4034'>0.22155E+02</wgt>
<wgt id='4035'>0.22289E+02</wgt>
<wgt id='4036'>0.21875E+02</wgt>
<wgt id='4037'>0.22200E+02</wgt>
<wgt id='4038'>0.21863E+02</wgt>
<wgt id='4039'>0.22051E+02</wgt>
<wgt id='4040'>0.22068E+02</wgt>
<wgt id='4041'>0.22203E+02</wgt>
<wgt id='4042'>0.21967E+02</wgt>
<wgt id='4043'>0.22187E+02</wgt>
<wgt id='4044'>0.21998E+02</wgt>
<wgt id='4045'>0.21802E+02</wgt>
<wgt id='4046'>0.22052E+02</wgt>
<wgt id='4047'>0.21928E+02</wgt>
<wgt id='4048'>0.22059E+02</wgt>
<wgt id='4049'>0.21966E+02</wgt>
<wgt id='4050'>0.21870E+02</wgt>
<wgt id='4051'>0.22035E+02</wgt>
<wgt id='4052'>0.22045E+02</wgt>
<wgt id='4053'>0.21473E+02</wgt>
<wgt id='4054'>0.22145E+02</wgt>
<wgt id='4055'>0.21939E+02</wgt>
<wgt id='4056'>0.22258E+02</wgt>
<wgt id='4060'>0.21382E+02</wgt>
<wgt id='4070'>0.22751E+02</wgt>
<wgt id='4080'>0.22287E+02</wgt>
<wgt id='6000'>0.22333E+02</wgt>
<wgt id='6001'>0.22351E+02</wgt>
<wgt id='6002'>0.22313E+02</wgt>
<wgt id='6003'>0.22343E+02</wgt>
<wgt id='6004'>0.22325E+02</wgt>
<wgt id='6005'>0.22381E+02</wgt>
<wgt id='6006'>0.22287E+02</wgt>
<wgt id='6007'>0.22248E+02</wgt>
<wgt id='6008'>0.22426E+02</wgt>
<wgt id='6009'>0.22411E+02</wgt>
<wgt id='6010'>0.22256E+02</wgt>
<wgt id='6011'>0.22380E+02</wgt>
<wgt id='6012'>0.22230E+02</wgt>
<wgt id='6013'>0.22309E+02</wgt>
<wgt id='6014'>0.22376E+02</wgt>
<wgt id='6015'>0.22269E+02</wgt>
<wgt id='6016'>0.22368E+02</wgt>
<wgt id='6017'>0.22206E+02</wgt>
<wgt id='6018'>0.22483E+02</wgt>
<wgt id='6019'>0.22351E+02</wgt>
<wgt id='6020'>0.22316E+02</wgt>
<wgt id='6021'>0.22285E+02</wgt>
<wgt id='6022'>0.22396E+02</wgt>
<wgt id='6023'>0.22180E+02</wgt>
<wgt id='6024'>0.22440E+02</wgt>
<wgt id='6025'>0.22212E+02</wgt>
<wgt id='6026'>0.22397E+02</wgt>
<wgt id='6027'>0.22392E+02</wgt>
<wgt id='6028'>0.22332E+02</wgt>
<wgt id='6029'>0.22418E+02</wgt>
<wgt id='6030'>0.22232E+02</wgt>
<wgt id='6031'>0.22319E+02</wgt>
<wgt id='6032'>0.22339E+02</wgt>
<wgt id='6033'>0.22382E+02</wgt>
<wgt id='6034'>0.22282E+02</wgt>
<wgt id='6035'>0.22333E+02</wgt>
<wgt id='6036'>0.22371E+02</wgt>
<wgt id='6037'>0.22371E+02</wgt>
<wgt id='6038'>0.22330E+02</wgt>
<wgt id='6039'>0.22303E+02</wgt>
<wgt id='6040'>0.22364E+02</wgt>
<wgt id='6041'>0.22284E+02</wgt>
<wgt id='6042'>0.22392E+02</wgt>
<wgt id='6043'>0.22614E+02</wgt>
<wgt id='6044'>0.22211E+02</wgt>
<wgt id='6045'>0.22316E+02</wgt>
<wgt id='6046'>0.22377E+02</wgt>
<wgt id='6047'>0.22412E+02</wgt>
<wgt id='6048'>0.22109E+02</wgt>
<wgt id='6049'>0.22372E+02</wgt>
<wgt id='6050'>0.22304E+02</wgt>
<wgt id='7000'>0.21032E+02</wgt>
<wgt id='7001'>0.21036E+02</wgt>
<wgt id='7002'>0.21026E+02</wgt>
<wgt id='7003'>0.21093E+02</wgt>
<wgt id='7004'>0.20970E+02</wgt>
<wgt id='7005'>0.21069E+02</wgt>
<wgt id='7006'>0.21016E+02</wgt>
<wgt id='7007'>0.20952E+02</wgt>
<wgt id='7008'>0.21111E+02</wgt>
<wgt id='7009'>0.21069E+02</wgt>
<wgt id='7010'>0.20994E+02</wgt>
<wgt id='7011'>0.20833E+02</wgt>
<wgt id='7012'>0.21117E+02</wgt>
<wgt id='7013'>0.21031E+02</wgt>
<wgt id='7014'>0.21031E+02</wgt>
<wgt id='7015'>0.20972E+02</wgt>
<wgt id='7016'>0.21095E+02</wgt>
<wgt id='7017'>0.20940E+02</wgt>
<wgt id='7018'>0.21079E+02</wgt>
<wgt id='7019'>0.21009E+02</wgt>
<wgt id='7020'>0.21062E+02</wgt>
<wgt id='7021'>0.21024E+02</wgt>
<wgt id='7022'>0.21035E+02</wgt>
<wgt id='7023'>0.21201E+02</wgt>
<wgt id='7024'>0.20859E+02</wgt>
<wgt id='7025'>0.21103E+02</wgt>
<wgt id='7026'>0.20855E+02</wgt>
<wgt id='7027'>0.21110E+02</wgt>
<wgt id='7028'>0.21003E+02</wgt>
<wgt id='7029'>0.20975E+02</wgt>
<wgt id='7030'>0.21169E+02</wgt>
<wgt id='7031'>0.21016E+02</wgt>
<wgt id='7032'>0.21067E+02</wgt>
<wgt id='7033'>0.21017E+02</wgt>
<wgt id='7034'>0.21071E+02</wgt>
<wgt id='7035'>0.21049E+02</wgt>
<wgt id='7036'>0.21033E+02</wgt>
<wgt id='7037'>0.21037E+02</wgt>
<wgt id='7038'>0.21040E+02</wgt>
<wgt id='7039'>0.20999E+02</wgt>
<wgt id='7040'>0.21055E+02</wgt>
<wgt id='7041'>0.20996E+02</wgt>
<wgt id='7042'>0.21063E+02</wgt>
<wgt id='7043'>0.21049E+02</wgt>
<wgt id='7044'>0.20936E+02</wgt>
<wgt id='7045'>0.20849E+02</wgt>
<wgt id='7046'>0.21124E+02</wgt>
<wgt id='7047'>0.21077E+02</wgt>
<wgt id='7048'>0.21007E+02</wgt>
<wgt id='7049'>0.20984E+02</wgt>
<wgt id='7050'>0.21040E+02</wgt>
<wgt id='7060'>0.33003E+02</wgt>
<wgt id='8000'>0.21318E+02</wgt>
<wgt id='8001'>0.21313E+02</wgt>
<wgt id='8002'>0.21324E+02</wgt>
<wgt id='8003'>0.21320E+02</wgt>
<wgt id='8004'>0.21318E+02</wgt>
<wgt id='8005'>0.21269E+02</wgt>
<wgt id='8006'>0.21310E+02</wgt>
<wgt id='8007'>0.21300E+02</wgt>
<wgt id='8008'>0.21357E+02</wgt>
<wgt id='8009'>0.21398E+02</wgt>
<wgt id='8010'>0.21316E+02</wgt>
<wgt id='8011'>0.21309E+02</wgt>
<wgt id='8012'>0.21288E+02</wgt>
<wgt id='8013'>0.21308E+02</wgt>
<wgt id='8014'>0.21317E+02</wgt>
<wgt id='8015'>0.21302E+02</wgt>
<wgt id='8016'>0.21328E+02</wgt>
<wgt id='8017'>0.21322E+02</wgt>
<wgt id='8018'>0.21327E+02</wgt>
<wgt id='8019'>0.21346E+02</wgt>
<wgt id='8020'>0.21265E+02</wgt>
<wgt id='8021'>0.21317E+02</wgt>
<wgt id='8022'>0.21221E+02</wgt>
<wgt id='8023'>0.21330E+02</wgt>
<wgt id='8024'>0.21339E+02</wgt>
<wgt id='8025'>0.21371E+02</wgt>
<wgt id='8026'>0.21357E+02</wgt>
<wgt id='8027'>0.21292E+02</wgt>
<wgt id='8028'>0.21339E+02</wgt>
<wgt id='8029'>0.21183E+02</wgt>
<wgt id='8500'>0.22245E+02</wgt>
<wgt id='8501'>0.22161E+02</wgt>
<wgt id='8502'>0.22365E+02</wgt>
<wgt id='8503'>0.22342E+02</wgt>
<wgt id='8504'>0.22199E+02</wgt>
<wgt id='8505'>0.22215E+02</wgt>
<wgt id='8506'>0.22225E+02</wgt>
<wgt id='8507'>0.22309E+02</wgt>
<wgt id='8508'>0.22352E+02</wgt>
<wgt id='8509'>0.22218E+02</wgt>
<wgt id='8510'>0.22525E+02</wgt>
<wgt id='8511'>0.22254E+02</wgt>
<wgt id='8512'>0.22067E+02</wgt>
<wgt id='8513'>0.22272E+02</wgt>
<wgt id='8514'>0.22045E+02</wgt>
<wgt id='8515'>0.22302E+02</wgt>
<wgt id='8516'>0.22272E+02</wgt>
<wgt id='8517'>0.22148E+02</wgt>
<wgt id='8518'>0.22186E+02</wgt>
<wgt id='8519'>0.22185E+02</wgt>
<wgt id='8520'>0.22239E+02</wgt>
<wgt id='8521'>0.22141E+02</wgt>
<wgt id='8522'>0.22272E+02</wgt>
<wgt id='8523'>0.22188E+02</wgt>
<wgt id='8524'>0.22233E+02</wgt>
<wgt id='8525'>0.22232E+02</wgt>
<wgt id='8526'>0.22217E+02</wgt>
<wgt id='8527'>0.22248E+02</wgt>
<wgt id='8528'>0.22191E+02</wgt>
<wgt id='8529'>0.22223E+02</wgt>
<wgt id='8530'>0.22243E+02</wgt>
<wgt id='8531'>0.22238E+02</wgt>
<wgt id='8532'>0.22247E+02</wgt>
<wgt id='8533'>0.22202E+02</wgt>
<wgt id='8534'>0.22253E+02</wgt>
<wgt id='8535'>0.22296E+02</wgt>
<wgt id='8536'>0.22229E+02</wgt>
<wgt id='8537'>0.22253E+02</wgt>
<wgt id='8538'>0.22228E+02</wgt>
<wgt id='8539'>0.22250E+02</wgt>
<wgt id='8540'>0.22249E+02</wgt>
<wgt id='8541'>0.22256E+02</wgt>
<wgt id='8542'>0.22260E+02</wgt>
<wgt id='8543'>0.22225E+02</wgt>
<wgt id='8544'>0.22265E+02</wgt>
<wgt id='8545'>0.22262E+02</wgt>
<wgt id='8546'>0.22268E+02</wgt>
<wgt id='8547'>0.22230E+02</wgt>
<wgt id='8548'>0.22226E+02</wgt>
<wgt id='8549'>0.22245E+02</wgt>
<wgt id='8550'>0.22246E+02</wgt>
<wgt id='8551'>0.22225E+02</wgt>
<wgt id='8552'>0.22247E+02</wgt>
<wgt id='8553'>0.22233E+02</wgt>
<wgt id='8554'>0.22237E+02</wgt>
<wgt id='8555'>0.22247E+02</wgt>
<wgt id='8556'>0.22243E+02</wgt>
<wgt id='8557'>0.22241E+02</wgt>
<wgt id='8558'>0.22269E+02</wgt>
<wgt id='8559'>0.22234E+02</wgt>
<wgt id='8560'>0.22221E+02</wgt>
<wgt id='8561'>0.22243E+02</wgt>
<wgt id='8562'>0.22228E+02</wgt>
<wgt id='8563'>0.22247E+02</wgt>
<wgt id='8564'>0.22239E+02</wgt>
<wgt id='8565'>0.22245E+02</wgt>
<wgt id='8566'>0.22244E+02</wgt>
<wgt id='8567'>0.22243E+02</wgt>
<wgt id='8568'>0.22254E+02</wgt>
<wgt id='8569'>0.22252E+02</wgt>
<wgt id='8570'>0.22244E+02</wgt>
<wgt id='8571'>0.22236E+02</wgt>
<wgt id='8572'>0.22237E+02</wgt>
<wgt id='8573'>0.22235E+02</wgt>
<wgt id='8574'>0.22249E+02</wgt>
<wgt id='8575'>0.22243E+02</wgt>
<wgt id='8576'>0.22244E+02</wgt>
<wgt id='8577'>0.22243E+02</wgt>
<wgt id='8578'>0.22247E+02</wgt>
<wgt id='8579'>0.22259E+02</wgt>
<wgt id='8580'>0.22245E+02</wgt>
<wgt id='8581'>0.22250E+02</wgt>
<wgt id='8582'>0.22232E+02</wgt>
<wgt id='8583'>0.22255E+02</wgt>
<wgt id='8584'>0.22252E+02</wgt>
<wgt id='8585'>0.22250E+02</wgt>
<wgt id='8586'>0.22258E+02</wgt>
<wgt id='8587'>0.22243E+02</wgt>
<wgt id='8588'>0.22240E+02</wgt>
<wgt id='8589'>0.22247E+02</wgt>
<wgt id='8590'>0.22243E+02</wgt>
<wgt id='8591'>0.22241E+02</wgt>
<wgt id='8592'>0.22245E+02</wgt>
<wgt id='8593'>0.22237E+02</wgt>
<wgt id='8594'>0.22248E+02</wgt>
<wgt id='8595'>0.22247E+02</wgt>
<wgt id='8596'>0.22240E+02</wgt>
<wgt id='8597'>0.22249E+02</wgt>
<wgt id='8598'>0.22250E+02</wgt>
<wgt id='8599'>0.22249E+02</wgt>
<wgt id='8600'>0.22245E+02</wgt>
<wgt id='8601'>0.21774E+02</wgt>
<wgt id='8602'>0.22679E+02</wgt>
<wgt id='9000'>0.21133E+02</wgt>
<wgt id='9001'>0.21142E+02</wgt>
<wgt id='9002'>0.21205E+02</wgt>
<wgt id='9003'>0.21010E+02</wgt>
<wgt id='9004'>0.21111E+02</wgt>
<wgt id='9005'>0.21180E+02</wgt>
<wgt id='9006'>0.21124E+02</wgt>
<wgt id='9007'>0.21181E+02</wgt>
<wgt id='9008'>0.21173E+02</wgt>
<wgt id='9009'>0.21116E+02</wgt>
<wgt id='9010'>0.21069E+02</wgt>
<wgt id='9011'>0.21330E+02</wgt>
<wgt id='9012'>0.21001E+02</wgt>
<wgt id='9013'>0.20901E+02</wgt>
<wgt id='9014'>0.21004E+02</wgt>
<wgt id='9015'>0.21126E+02</wgt>
<wgt id='9016'>0.21318E+02</wgt>
<wgt id='9017'>0.21080E+02</wgt>
<wgt id='9018'>0.21089E+02</wgt>
<wgt id='9019'>0.21107E+02</wgt>
<wgt id='9020'>0.21242E+02</wgt>
<wgt id='9021'>0.21106E+02</wgt>
<wgt id='9022'>0.21166E+02</wgt>
<wgt id='9023'>0.21077E+02</wgt>
<wgt id='9024'>0.21100E+02</wgt>
<wgt id='9025'>0.21150E+02</wgt>
<wgt id='9026'>0.21128E+02</wgt>
<wgt id='9027'>0.21107E+02</wgt>
<wgt id='9028'>0.21154E+02</wgt>
<wgt id='9029'>0.21158E+02</wgt>
<wgt id='9030'>0.21140E+02</wgt>
<wgt id='9031'>0.21125E+02</wgt>
<wgt id='9032'>0.21150E+02</wgt>
<wgt id='9033'>0.21158E+02</wgt>
<wgt id='9034'>0.21127E+02</wgt>
<wgt id='9035'>0.21166E+02</wgt>
<wgt id='9036'>0.21136E+02</wgt>
<wgt id='9037'>0.21152E+02</wgt>
<wgt id='9038'>0.21137E+02</wgt>
<wgt id='9039'>0.21134E+02</wgt>
<wgt id='9040'>0.21112E+02</wgt>
<wgt id='9041'>0.21124E+02</wgt>
<wgt id='9042'>0.21129E+02</wgt>
<wgt id='9043'>0.21116E+02</wgt>
<wgt id='9044'>0.21139E+02</wgt>
<wgt id='9045'>0.21131E+02</wgt>
<wgt id='9046'>0.21106E+02</wgt>
<wgt id='9047'>0.21127E+02</wgt>
<wgt id='9048'>0.21140E+02</wgt>
<wgt id='9049'>0.21121E+02</wgt>
<wgt id='9050'>0.21136E+02</wgt>
<wgt id='9051'>0.21143E+02</wgt>
<wgt id='9052'>0.21140E+02</wgt>
<wgt id='9053'>0.21135E+02</wgt>
<wgt id='9054'>0.21124E+02</wgt>
<wgt id='9055'>0.21127E+02</wgt>
<wgt id='9056'>0.21150E+02</wgt>
<wgt id='9057'>0.21133E+02</wgt>
<wgt id='9058'>0.21117E+02</wgt>
<wgt id='9059'>0.21124E+02</wgt>
<wgt id='9060'>0.21126E+02</wgt>
<wgt id='9061'>0.21136E+02</wgt>
<wgt id='9062'>0.21136E+02</wgt>
<wgt id='9063'>0.21142E+02</wgt>
<wgt id='9064'>0.21128E+02</wgt>
<wgt id='9065'>0.21132E+02</wgt>
<wgt id='9066'>0.21135E+02</wgt>
<wgt id='9067'>0.21139E+02</wgt>
<wgt id='9068'>0.21139E+02</wgt>
<wgt id='9069'>0.21145E+02</wgt>
<wgt id='9070'>0.21130E+02</wgt>
<wgt id='9071'>0.21146E+02</wgt>
<wgt id='9072'>0.21146E+02</wgt>
<wgt id='9073'>0.21127E+02</wgt>
<wgt id='9074'>0.21136E+02</wgt>
<wgt id='9075'>0.21132E+02</wgt>
<wgt id='9076'>0.21131E+02</wgt>
<wgt id='9077'>0.21137E+02</wgt>
<wgt id='9078'>0.21135E+02</wgt>
<wgt id='9079'>0.21130E+02</wgt>
<wgt id='9080'>0.21148E+02</wgt>
<wgt id='9081'>0.21131E+02</wgt>
<wgt id='9082'>0.21138E+02</wgt>
<wgt id='9083'>0.21126E+02</wgt>
<wgt id='9084'>0.21126E+02</wgt>
<wgt id='9085'>0.21127E+02</wgt>
<wgt id='9086'>0.21137E+02</wgt>
<wgt id='9087'>0.21119E+02</wgt>
<wgt id='9088'>0.21128E+02</wgt>
<wgt id='9089'>0.21127E+02</wgt>
<wgt id='9090'>0.21136E+02</wgt>
<wgt id='9091'>0.21130E+02</wgt>
<wgt id='9092'>0.21132E+02</wgt>
<wgt id='9093'>0.21129E+02</wgt>
<wgt id='9094'>0.21131E+02</wgt>
<wgt id='9095'>0.21135E+02</wgt>
<wgt id='9096'>0.21128E+02</wgt>
<wgt id='9097'>0.21134E+02</wgt>
<wgt id='9098'>0.21132E+02</wgt>
<wgt id='9099'>0.21128E+02</wgt>
<wgt id='9100'>0.21132E+02</wgt>
<wgt id='9101'>0.20759E+02</wgt>
<wgt id='9102'>0.21485E+02</wgt>
<wgt id='10000'>0.22247E+02</wgt>
<wgt id='10001'>0.22333E+02</wgt>
<wgt id='10002'>0.22165E+02</wgt>
<wgt id='10003'>0.22242E+02</wgt>
<wgt id='10004'>0.22177E+02</wgt>
<wgt id='10005'>0.22668E+02</wgt>
<wgt id='10006'>0.22209E+02</wgt>
<wgt id='10007'>0.22235E+02</wgt>
<wgt id='10008'>0.22292E+02</wgt>
<wgt id='10009'>0.22197E+02</wgt>
<wgt id='10010'>0.22278E+02</wgt>
<wgt id='10011'>0.22215E+02</wgt>
<wgt id='10012'>0.22218E+02</wgt>
<wgt id='10013'>0.22250E+02</wgt>
<wgt id='10014'>0.22235E+02</wgt>
<wgt id='10015'>0.22268E+02</wgt>
<wgt id='10016'>0.22222E+02</wgt>
<wgt id='10017'>0.22139E+02</wgt>
<wgt id='10018'>0.22273E+02</wgt>
<wgt id='10019'>0.22224E+02</wgt>
<wgt id='10020'>0.22225E+02</wgt>
<wgt id='10021'>0.22239E+02</wgt>
<wgt id='10022'>0.22232E+02</wgt>
<wgt id='10023'>0.22253E+02</wgt>
<wgt id='10024'>0.22229E+02</wgt>
<wgt id='10025'>0.22230E+02</wgt>
<wgt id='10026'>0.22288E+02</wgt>
<wgt id='10027'>0.22282E+02</wgt>
<wgt id='10028'>0.22396E+02</wgt>
<wgt id='10029'>0.22277E+02</wgt>
<wgt id='10030'>0.22241E+02</wgt>
<wgt id='10031'>0.21774E+02</wgt>
<wgt id='10032'>0.22679E+02</wgt>
<wgt id='11000'>0.21134E+02</wgt>
<wgt id='11001'>0.21019E+02</wgt>
<wgt id='11002'>0.21200E+02</wgt>
<wgt id='11003'>0.21110E+02</wgt>
<wgt id='11004'>0.21203E+02</wgt>
<wgt id='11005'>0.20927E+02</wgt>
<wgt id='11006'>0.21141E+02</wgt>
<wgt id='11007'>0.21088E+02</wgt>
<wgt id='11008'>0.21086E+02</wgt>
<wgt id='11009'>0.21060E+02</wgt>
<wgt id='11010'>0.21238E+02</wgt>
<wgt id='11011'>0.21056E+02</wgt>
<wgt id='11012'>0.21149E+02</wgt>
<wgt id='11013'>0.21193E+02</wgt>
<wgt id='11014'>0.21092E+02</wgt>
<wgt id='11015'>0.21117E+02</wgt>
<wgt id='11016'>0.21117E+02</wgt>
<wgt id='11017'>0.21265E+02</wgt>
<wgt id='11018'>0.21127E+02</wgt>
<wgt id='11019'>0.21125E+02</wgt>
<wgt id='11020'>0.21178E+02</wgt>
<wgt id='11021'>0.21176E+02</wgt>
<wgt id='11022'>0.21445E+02</wgt>
<wgt id='11023'>0.21138E+02</wgt>
<wgt id='11024'>0.21145E+02</wgt>
<wgt id='11025'>0.21115E+02</wgt>
<wgt id='11026'>0.21140E+02</wgt>
<wgt id='11027'>0.21129E+02</wgt>
<wgt id='11028'>0.21148E+02</wgt>
<wgt id='11029'>0.21151E+02</wgt>
<wgt id='11030'>0.21133E+02</wgt>
<wgt id='11031'>0.20759E+02</wgt>
<wgt id='11032'>0.21485E+02</wgt>
<wgt id='12000'>0.23241E+02</wgt>
<wgt id='12001'>0.23211E+02</wgt>
<wgt id='12002'>0.23271E+02</wgt>
<wgt id='12003'>0.23296E+02</wgt>
<wgt id='12004'>0.23186E+02</wgt>
<wgt id='12005'>0.23274E+02</wgt>
<wgt id='12006'>0.23207E+02</wgt>
<wgt id='12007'>0.23302E+02</wgt>
<wgt id='12008'>0.23181E+02</wgt>
<wgt id='12009'>0.23266E+02</wgt>
<wgt id='12010'>0.23216E+02</wgt>
<wgt id='12011'>0.23168E+02</wgt>
<wgt id='12012'>0.23315E+02</wgt>
<wgt id='12013'>0.23160E+02</wgt>
<wgt id='12014'>0.23322E+02</wgt>
<wgt id='12015'>0.23253E+02</wgt>
<wgt id='12016'>0.23215E+02</wgt>
<wgt id='12017'>0.23320E+02</wgt>
<wgt id='12018'>0.23156E+02</wgt>
<wgt id='12019'>0.23190E+02</wgt>
<wgt id='12020'>0.23289E+02</wgt>
<wgt id='12021'>0.23315E+02</wgt>
<wgt id='12022'>0.23143E+02</wgt>
<wgt id='12023'>0.23117E+02</wgt>
<wgt id='12024'>0.23260E+02</wgt>
<wgt id='12025'>0.23260E+02</wgt>
<wgt id='12026'>0.23252E+02</wgt>
<wgt id='12027'>0.23300E+02</wgt>
<wgt id='12028'>0.23202E+02</wgt>
<wgt id='12050'>0.23241E+02</wgt>
<wgt id='12051'>0.23240E+02</wgt>
<wgt id='12052'>0.23225E+02</wgt>
<wgt id='12053'>0.23235E+02</wgt>
<wgt id='12054'>0.23231E+02</wgt>
<wgt id='12055'>0.23316E+02</wgt>
<wgt id='12056'>0.23163E+02</wgt>
<wgt id='12057'>0.23169E+02</wgt>
<wgt id='12058'>0.23312E+02</wgt>
<wgt id='12059'>0.23217E+02</wgt>
<wgt id='12060'>0.23273E+02</wgt>
<wgt id='12061'>0.23215E+02</wgt>
<wgt id='12062'>0.23274E+02</wgt>
<wgt id='12063'>0.23053E+02</wgt>
<wgt id='13000'>0.21468E+02</wgt>
<wgt id='13001'>0.21452E+02</wgt>
<wgt id='13002'>0.21482E+02</wgt>
<wgt id='13003'>0.21497E+02</wgt>
<wgt id='13004'>0.21437E+02</wgt>
<wgt id='13005'>0.21515E+02</wgt>
<wgt id='13006'>0.21419E+02</wgt>
<wgt id='13007'>0.21555E+02</wgt>
<wgt id='13008'>0.21380E+02</wgt>
<wgt id='13009'>0.21450E+02</wgt>
<wgt id='13010'>0.21484E+02</wgt>
<wgt id='13011'>0.21524E+02</wgt>
<wgt id='13012'>0.21410E+02</wgt>
<wgt id='13013'>0.21412E+02</wgt>
<wgt id='13014'>0.21522E+02</wgt>
<wgt id='13015'>0.21449E+02</wgt>
<wgt id='13016'>0.21479E+02</wgt>
<wgt id='13017'>0.21455E+02</wgt>
<wgt id='13018'>0.21475E+02</wgt>
<wgt id='13019'>0.21437E+02</wgt>
<wgt id='13020'>0.21496E+02</wgt>
<wgt id='13021'>0.21349E+02</wgt>
<wgt id='13022'>0.21558E+02</wgt>
<wgt id='13023'>0.21439E+02</wgt>
<wgt id='13024'>0.21492E+02</wgt>
<wgt id='13025'>0.21358E+02</wgt>
<wgt id='13026'>0.21526E+02</wgt>
<wgt id='13027'>0.21446E+02</wgt>
<wgt id='13028'>0.21510E+02</wgt>
<wgt id='13050'>0.21468E+02</wgt>
<wgt id='13051'>0.21480E+02</wgt>
<wgt id='13052'>0.21398E+02</wgt>
<wgt id='13053'>0.21471E+02</wgt>
<wgt id='13054'>0.21456E+02</wgt>
<wgt id='13055'>0.21357E+02</wgt>
<wgt id='13056'>0.21475E+02</wgt>
<wgt id='13057'>0.21404E+02</wgt>
<wgt id='13058'>0.21571E+02</wgt>
<wgt id='13059'>0.21417E+02</wgt>
<wgt id='13060'>0.21386E+02</wgt>
<wgt id='13061'>0.21407E+02</wgt>
<wgt id='13062'>0.21628E+02</wgt>
<wgt id='13063'>0.21403E+02</wgt>
<wgt id='14000'>0.21973E+02</wgt>
<wgt id='14001'>0.21969E+02</wgt>
<wgt id='14002'>0.21966E+02</wgt>
<wgt id='14003'>0.21963E+02</wgt>
<wgt id='14004'>0.21959E+02</wgt>
<wgt id='14005'>0.21956E+02</wgt>
<wgt id='14006'>0.21953E+02</wgt>
<wgt id='14007'>0.21949E+02</wgt>
<wgt id='14008'>0.21946E+02</wgt>
<wgt id='14009'>0.21942E+02</wgt>
<wgt id='14010'>0.21939E+02</wgt>
<wgt id='14011'>0.21936E+02</wgt>
<wgt id='14012'>0.21932E+02</wgt>
<wgt id='14013'>0.21929E+02</wgt>
<wgt id='14014'>0.21925E+02</wgt>
<wgt id='14015'>0.21922E+02</wgt>
<wgt id='14016'>0.21919E+02</wgt>
<wgt id='14017'>0.21915E+02</wgt>
<wgt id='14018'>0.21912E+02</wgt>
<wgt id='14019'>0.21909E+02</wgt>
<wgt id='14020'>0.21905E+02</wgt>
<wgt id='14021'>0.21902E+02</wgt>
<wgt id='14022'>0.21898E+02</wgt>
<wgt id='14023'>0.21895E+02</wgt>
<wgt id='14024'>0.21892E+02</wgt>
<wgt id='14025'>0.21888E+02</wgt>
<wgt id='14026'>0.21885E+02</wgt>
<wgt id='14027'>0.21881E+02</wgt>
<wgt id='14028'>0.21878E+02</wgt>
<wgt id='14029'>0.21875E+02</wgt>
<wgt id='14030'>0.21871E+02</wgt>
<wgt id='15000'>0.20893E+02</wgt>
<wgt id='15001'>0.20903E+02</wgt>
<wgt id='15002'>0.20964E+02</wgt>
<wgt id='15003'>0.20772E+02</wgt>
<wgt id='15004'>0.20872E+02</wgt>
<wgt id='15005'>0.20940E+02</wgt>
<wgt id='15006'>0.20884E+02</wgt>
<wgt id='15007'>0.20940E+02</wgt>
<wgt id='15008'>0.20933E+02</wgt>
<wgt id='15009'>0.20876E+02</wgt>
<wgt id='15010'>0.20830E+02</wgt>
<wgt id='15011'>0.21087E+02</wgt>
<wgt id='15012'>0.20761E+02</wgt>
<wgt id='15013'>0.20664E+02</wgt>
<wgt id='15014'>0.20766E+02</wgt>
<wgt id='15015'>0.20887E+02</wgt>
<wgt id='15016'>0.21073E+02</wgt>
<wgt id='15017'>0.20841E+02</wgt>
<wgt id='15018'>0.20850E+02</wgt>
<wgt id='15019'>0.20868E+02</wgt>
<wgt id='15020'>0.21000E+02</wgt>
<wgt id='15021'>0.20866E+02</wgt>
<wgt id='15022'>0.20927E+02</wgt>
<wgt id='15023'>0.20835E+02</wgt>
<wgt id='15024'>0.20860E+02</wgt>
<wgt id='15025'>0.20913E+02</wgt>
<wgt id='15026'>0.20889E+02</wgt>
<wgt id='15027'>0.20865E+02</wgt>
<wgt id='15028'>0.20913E+02</wgt>
<wgt id='15029'>0.20919E+02</wgt>
<wgt id='15030'>0.20900E+02</wgt>
<wgt id='15031'>0.20883E+02</wgt>
<wgt id='15032'>0.20910E+02</wgt>
<wgt id='15033'>0.20918E+02</wgt>
<wgt id='15034'>0.20888E+02</wgt>
<wgt id='15035'>0.20927E+02</wgt>
<wgt id='15036'>0.20896E+02</wgt>
<wgt id='15037'>0.20912E+02</wgt>
<wgt id='15038'>0.20897E+02</wgt>
<wgt id='15039'>0.20895E+02</wgt>
<wgt id='15040'>0.20872E+02</wgt>
<wgt id='15041'>0.20885E+02</wgt>
<wgt id='15042'>0.20890E+02</wgt>
<wgt id='15043'>0.20875E+02</wgt>
<wgt id='15044'>0.20899E+02</wgt>
<wgt id='15045'>0.20891E+02</wgt>
<wgt id='15046'>0.20866E+02</wgt>
<wgt id='15047'>0.20887E+02</wgt>
<wgt id='15048'>0.20899E+02</wgt>
<wgt id='15049'>0.20881E+02</wgt>
<wgt id='15050'>0.20896E+02</wgt>
<wgt id='15051'>0.20903E+02</wgt>
<wgt id='15052'>0.20900E+02</wgt>
<wgt id='15053'>0.20895E+02</wgt>
<wgt id='15054'>0.20884E+02</wgt>
<wgt id='15055'>0.20887E+02</wgt>
<wgt id='15056'>0.20910E+02</wgt>
<wgt id='15057'>0.20893E+02</wgt>
<wgt id='15058'>0.20876E+02</wgt>
<wgt id='15059'>0.20884E+02</wgt>
<wgt id='15060'>0.20886E+02</wgt>
<wgt id='15061'>0.20895E+02</wgt>
<wgt id='15062'>0.20896E+02</wgt>
<wgt id='15063'>0.20902E+02</wgt>
<wgt id='15064'>0.20888E+02</wgt>
<wgt id='15065'>0.20892E+02</wgt>
<wgt id='15066'>0.20895E+02</wgt>
<wgt id='15067'>0.20899E+02</wgt>
<wgt id='15068'>0.20899E+02</wgt>
<wgt id='15069'>0.20905E+02</wgt>
<wgt id='15070'>0.20890E+02</wgt>
<wgt id='15071'>0.20906E+02</wgt>
<wgt id='15072'>0.20906E+02</wgt>
<wgt id='15073'>0.20887E+02</wgt>
<wgt id='15074'>0.20896E+02</wgt>
<wgt id='15075'>0.20892E+02</wgt>
<wgt id='15076'>0.20891E+02</wgt>
<wgt id='15077'>0.20897E+02</wgt>
<wgt id='15078'>0.20895E+02</wgt>
<wgt id='15079'>0.20889E+02</wgt>
<wgt id='15080'>0.20908E+02</wgt>
<wgt id='15081'>0.20891E+02</wgt>
<wgt id='15082'>0.20898E+02</wgt>
<wgt id='15083'>0.20886E+02</wgt>
<wgt id='15084'>0.20886E+02</wgt>
<wgt id='15085'>0.20887E+02</wgt>
<wgt id='15086'>0.20896E+02</wgt>
<wgt id='15087'>0.20879E+02</wgt>
<wgt id='15088'>0.20888E+02</wgt>
<wgt id='15089'>0.20888E+02</wgt>
<wgt id='15090'>0.20896E+02</wgt>
<wgt id='15091'>0.20890E+02</wgt>
<wgt id='15092'>0.20892E+02</wgt>
<wgt id='15093'>0.20889E+02</wgt>
<wgt id='15094'>0.20891E+02</wgt>
<wgt id='15095'>0.20895E+02</wgt>
<wgt id='15096'>0.20888E+02</wgt>
<wgt id='15097'>0.20894E+02</wgt>
<wgt id='15098'>0.20893E+02</wgt>
<wgt id='15099'>0.20888E+02</wgt>
<wgt id='15100'>0.20892E+02</wgt>
<wgt id='15101'>0.20893E+02</wgt>
<wgt id='15102'>0.20891E+02</wgt>
<wgt id='15103'>0.20893E+02</wgt>
<wgt id='15104'>0.20893E+02</wgt>
<wgt id='15105'>0.20894E+02</wgt>
<wgt id='15106'>0.20893E+02</wgt>
<wgt id='15107'>0.20892E+02</wgt>
<wgt id='1500'>0.22324E+02</wgt>
<wgt id='1501'>0.20782E+02</wgt>
<wgt id='1502'>0.22237E+02</wgt>
<wgt id='1503'>0.22417E+02</wgt>
<wgt id='1504'>0.22015E+02</wgt>
<wgt id='1505'>0.20228E+02</wgt>
<wgt id='1506'>0.22721E+02</wgt>
<wgt id='1507'>0.22467E+02</wgt>
<wgt id='1508'>0.22523E+02</wgt>
<wgt id='1509'>0.22521E+02</wgt>
<wgt id='1510'>0.21710E+02</wgt>
<wgt id='1511'>0.21779E+02</wgt>
<wgt id='1512'>0.22700E+02</wgt>
<wgt id='1513'>0.22739E+02</wgt>
<wgt id='1514'>0.21999E+02</wgt>
<wgt id='1515'>0.22769E+02</wgt>
<wgt id='1516'>0.22515E+02</wgt>
<wgt id='1517'>0.22184E+02</wgt>
<wgt id='1518'>0.22184E+02</wgt>
<wgt id='1519'>0.22638E+02</wgt>
<wgt id='1520'>0.22796E+02</wgt>
<wgt id='1521'>0.22538E+02</wgt>
<wgt id='1522'>0.22135E+02</wgt>
<wgt id='1523'>0.23955E+02</wgt>
<wgt id='1524'>0.22287E+02</wgt>
<wgt id='1525'>0.22416E+02</wgt>
<wgt id='1526'>0.22162E+02</wgt>
<wgt id='1527'>0.22078E+02</wgt>
<wgt id='1528'>0.22115E+02</wgt>
<wgt id='1529'>0.22346E+02</wgt>
<wgt id='1530'>0.22860E+02</wgt>
<wgt id='1531'>0.22272E+02</wgt>
<wgt id='1532'>0.21818E+02</wgt>
<wgt id='1533'>0.22184E+02</wgt>
<wgt id='1534'>0.22436E+02</wgt>
<wgt id='1535'>0.22866E+02</wgt>
<wgt id='1536'>0.22504E+02</wgt>
<wgt id='1537'>0.22731E+02</wgt>
<wgt id='1538'>0.22551E+02</wgt>
<wgt id='1539'>0.21790E+02</wgt>
<wgt id='1540'>0.22473E+02</wgt>
<wgt id='1541'>0.22384E+02</wgt>
<wgt id='1542'>0.22313E+02</wgt>
<wgt id='1543'>0.22432E+02</wgt>
<wgt id='1544'>0.22243E+02</wgt>
<wgt id='1545'>0.22259E+02</wgt>
<wgt id='1546'>0.22665E+02</wgt>
<wgt id='1547'>0.22032E+02</wgt>
<wgt id='1548'>0.22112E+02</wgt>
<wgt id='1549'>0.22096E+02</wgt>
<wgt id='1550'>0.22219E+02</wgt>
<wgt id='1551'>0.22260E+02</wgt>
<wgt id='1552'>0.22065E+02</wgt>
<wgt id='1553'>0.22609E+02</wgt>
<wgt id='1554'>0.22473E+02</wgt>
<wgt id='1555'>0.22097E+02</wgt>
<wgt id='1556'>0.21958E+02</wgt>
<wgt id='1557'>0.22723E+02</wgt>
<wgt id='1558'>0.22054E+02</wgt>
<wgt id='1559'>0.22689E+02</wgt>
<wgt id='1560'>0.22227E+02</wgt>
<wgt id='1561'>0.22289E+02</wgt>
<wgt id='1562'>0.22389E+02</wgt>
<wgt id='1563'>0.22474E+02</wgt>
<wgt id='1564'>0.21907E+02</wgt>
<wgt id='1565'>0.22447E+02</wgt>
<wgt id='1566'>0.22462E+02</wgt>
<wgt id='1567'>0.23762E+02</wgt>
<wgt id='1568'>0.22044E+02</wgt>
<wgt id='1569'>0.21743E+02</wgt>
<wgt id='1570'>0.22136E+02</wgt>
<wgt id='1571'>0.22397E+02</wgt>
<wgt id='1572'>0.22500E+02</wgt>
<wgt id='1573'>0.21115E+02</wgt>
<wgt id='1574'>0.22603E+02</wgt>
<wgt id='1575'>0.22123E+02</wgt>
<wgt id='1576'>0.21978E+02</wgt>
<wgt id='1577'>0.22552E+02</wgt>
<wgt id='1578'>0.22980E+02</wgt>
<wgt id='1579'>0.22113E+02</wgt>
<wgt id='1580'>0.22351E+02</wgt>
<wgt id='1581'>0.22481E+02</wgt>
<wgt id='1582'>0.22013E+02</wgt>
<wgt id='1583'>0.22723E+02</wgt>
<wgt id='1584'>0.22235E+02</wgt>
<wgt id='1585'>0.21876E+02</wgt>
<wgt id='1586'>0.22197E+02</wgt>
<wgt id='1587'>0.22346E+02</wgt>
<wgt id='1588'>0.22265E+02</wgt>
<wgt id='1589'>0.22994E+02</wgt>
<wgt id='1590'>0.22200E+02</wgt>
<wgt id='1591'>0.22056E+02</wgt>
<wgt id='1592'>0.22413E+02</wgt>
<wgt id='1593'>0.22239E+02</wgt>
<wgt id='1594'>0.22797E+02</wgt>
<wgt id='1595'>0.21969E+02</wgt>
<wgt id='1596'>0.22636E+02</wgt>
<wgt id='1597'>0.22257E+02</wgt>
<wgt id='1598'>0.22867E+02</wgt>
<wgt id='1599'>0.22695E+02</wgt>
<wgt id='1600'>0.22612E+02</wgt>
<wgt id='1601'>0.21962E+02</wgt>
<wgt id='1602'>0.22554E+02</wgt>
<wgt id='1700'>0.21381E+02</wgt>
<wgt id='1800'>0.25452E+02</wgt>
<wgt id='1850'>0.31095E+02</wgt>
<wgt id='1900'>0.26256E+02</wgt>
<wgt id='1950'>0.30667E+02</wgt>
</rwgt>
</event>
<event>
      4   9999  2.16956E+01  9.81470E+00 -1.00000E+00  1.92618E-01
      21    -1     0     0   502   501  0.000000000E+00  0.000000000E+00  9.305056042E+01  9.305056042E+01  0.000000000E+00  0.00000E+00  9.000E+00
      21    -1     0     0   511   502  0.000000000E+00  0.000000000E+00 -8.177064246E+01  8.177064246E+01  0.000000000E+00  0.00000E+00  9.000E+00
      25     1     1     2     0     0 -3.981085520E+00  8.971023569E+00  4.991714939E+01  1.349568835E+02  1.250012412E+02  0.00000E+00  9.000E+00
      21     1     1     2   511   501  3.981085520E+00 -8.971023569E+00 -3.863723144E+01  3.986431937E+01  4.768371582E-07  0.00000E+00  9.000E+00
#rwgt            1           1   9.9897133214373941                1        4755           0
<rwgt>
<wgt id='1001'>0.21696E+02</wgt>
<wgt id='1002'>0.15611E+02</wgt>
<wgt id='1003'>0.27541E+02</wgt>
<wgt id='1004'>0.25521E+02</wgt>
<wgt id='1005'>0.21353E+02</wgt>
<wgt id='1006'>0.29341E+02</wgt>
<wgt id='1007'>0.13069E+02</wgt>
<wgt id='1008'>0.39861E+01</wgt>
<wgt id='1009'>0.22126E+02</wgt>
<wgt id='2000'>0.21696E+02</wgt>
<wgt id='2001'>0.21662E+02</wgt>
<wgt id='2002'>0.21909E+02</wgt>
<wgt id='2003'>0.21899E+02</wgt>
<wgt id='2004'>0.21693E+02</wgt>
<wgt id='2005'>0.21580E+02</wgt>
<wgt id='2006'>0.21598E+02</wgt>
<wgt id='2007'>0.21527E+02</wgt>
<wgt id='2008'>0.21672E+02</wgt>
<wgt id='2009'>0.21710E+02</wgt>
<wgt id='2010'>0.21657E+02</wgt>
<wgt id='2011'>0.22030E+02</wgt>
<wgt id='2012'>0.22011E+02</wgt>
<wgt id='2013'>0.22231E+02</wgt>
<wgt id='2014'>0.21857E+02</wgt>
<wgt id='2015'>0.21797E+02</wgt>
<wgt id='2016'>0.21535E+02</wgt>
<wgt id='2017'>0.21703E+02</wgt>
<wgt id='2018'>0.21904E+02</wgt>
<wgt id='2019'>0.21656E+02</wgt>
<wgt id='2020'>0.21813E+02</wgt>
<wgt id='2021'>0.21627E+02</wgt>
<wgt id='2022'>0.21716E+02</wgt>
<wgt id='2023'>0.21723E+02</wgt>
<wgt id='2024'>0.21772E+02</wgt>
<wgt id='2025'>0.21660E+02</wgt>
<wgt id='2026'>0.21631E+02</wgt>
<wgt id='2027'>0.21701E+02</wgt>
<wgt id='2028'>0.21746E+02</wgt>
<wgt id='2029'>0.21649E+02</wgt>
<wgt id='2030'>0.21721E+02</wgt>
<wgt id='2031'>0.21667E+02</wgt>
<wgt id='2032'>0.21738E+02</wgt>
<wgt id='2033'>0.21704E+02</wgt>
<wgt id='2034'>0.21627E+02</wgt>
<wgt id='2035'>0.21699E+02</wgt>
<wgt id='2036'>0.21678E+02</wgt>
<wgt id='2037'>0.21668E+02</wgt>
<wgt id='2038'>0.21710E+02</wgt>
<wgt id='2039'>0.21732E+02</wgt>
<wgt id='2040'>0.21668E+02</wgt>
<wgt id='2041'>0.21676E+02</wgt>
<wgt id='2042'>0.21690E+02</wgt>
<wgt id='2043'>0.21701E+02</wgt>
<wgt id='2044'>0.21687E+02</wgt>
<wgt id='2045'>0.21694E+02</wgt>
<wgt id='2046'>0.21700E+02</wgt>
<wgt id='2047'>0.21677E+02</wgt>
<wgt id='2048'>0.21697E+02</wgt>
<wgt id='2049'>0.21695E+02</wgt>
<wgt id='2050'>0.21700E+02</wgt>
<wgt id='2051'>0.21657E+02</wgt>
<wgt id='2052'>0.21684E+02</wgt>
<wgt id='2053'>0.21693E+02</wgt>
<wgt id='2054'>0.21707E+02</wgt>
<wgt id='2055'>0.21697E+02</wgt>
<wgt id='2056'>0.21697E+02</wgt>
<wgt id='2057'>0.21679E+02</wgt>
<wgt id='2058'>0.21688E+02</wgt>
<wgt id='2059'>0.21695E+02</wgt>
<wgt id='2060'>0.21684E+02</wgt>
<wgt id='2061'>0.21711E+02</wgt>
<wgt id='2062'>0.21707E+02</wgt>
<wgt id='2063'>0.21684E+02</wgt>
<wgt id='2064'>0.21710E+02</wgt>
<wgt id='2065'>0.21693E+02</wgt>
<wgt id='2066'>0.21705E+02</wgt>
<wgt id='2067'>0.21698E+02</wgt>
<wgt id='2068'>0.21691E+02</wgt>
<wgt id='2069'>0.21688E+02</wgt>
<wgt id='2070'>0.21690E+02</wgt>
<wgt id='2071'>0.21696E+02</wgt>
<wgt id='2072'>0.21690E+02</wgt>
<wgt id='2073'>0.21690E+02</wgt>
<wgt id='2074'>0.21681E+02</wgt>
<wgt id='2075'>0.21706E+02</wgt>
<wgt id='2076'>0.21691E+02</wgt>
<wgt id='2077'>0.21694E+02</wgt>
<wgt id='2078'>0.21704E+02</wgt>
<wgt id='2079'>0.21696E+02</wgt>
<wgt id='2080'>0.21683E+02</wgt>
<wgt id='2081'>0.21696E+02</wgt>
<wgt id='2082'>0.21689E+02</wgt>
<wgt id='2083'>0.21694E+02</wgt>
<wgt id='2084'>0.21692E+02</wgt>
<wgt id='2085'>0.21697E+02</wgt>
<wgt id='2086'>0.21696E+02</wgt>
<wgt id='2087'>0.21697E+02</wgt>
<wgt id='2088'>0.21697E+02</wgt>
<wgt id='2089'>0.21694E+02</wgt>
<wgt id='2090'>0.21697E+02</wgt>
<wgt id='2091'>0.21696E+02</wgt>
<wgt id='2092'>0.21693E+02</wgt>
<wgt id='2093'>0.21698E+02</wgt>
<wgt id='2094'>0.21692E+02</wgt>
<wgt id='2095'>0.21696E+02</wgt>
<wgt id='2096'>0.21697E+02</wgt>
<wgt id='2097'>0.21695E+02</wgt>
<wgt id='2098'>0.21698E+02</wgt>
<wgt id='2099'>0.21701E+02</wgt>
<wgt id='2100'>0.21692E+02</wgt>
<wgt id='2101'>0.22032E+02</wgt>
<wgt id='2102'>0.21146E+02</wgt>
<wgt id='2104'>0.23347E+02</wgt>
<wgt id='2105'>0.22942E+02</wgt>
<wgt id='2106'>0.22628E+02</wgt>
<wgt id='2107'>0.22455E+02</wgt>
<wgt id='2108'>0.21985E+02</wgt>
<wgt id='2109'>0.21569E+02</wgt>
<wgt id='2110'>0.20683E+02</wgt>
<wgt id='2111'>0.20179E+02</wgt>
<wgt id='3000'>0.22372E+02</wgt>
<wgt id='3001'>0.22566E+02</wgt>
<wgt id='3002'>0.22143E+02</wgt>
<wgt id='3003'>0.22588E+02</wgt>
<wgt id='3004'>0.22441E+02</wgt>
<wgt id='3005'>0.22624E+02</wgt>
<wgt id='3006'>0.22475E+02</wgt>
<wgt id='3007'>0.22454E+02</wgt>
<wgt id='3008'>0.22209E+02</wgt>
<wgt id='3009'>0.22247E+02</wgt>
<wgt id='3010'>0.22182E+02</wgt>
<wgt id='3011'>0.22548E+02</wgt>
<wgt id='3012'>0.22787E+02</wgt>
<wgt id='3013'>0.21870E+02</wgt>
<wgt id='3014'>0.22588E+02</wgt>
<wgt id='3015'>0.22622E+02</wgt>
<wgt id='3016'>0.22395E+02</wgt>
<wgt id='3017'>0.22629E+02</wgt>
<wgt id='3018'>0.22404E+02</wgt>
<wgt id='3019'>0.22172E+02</wgt>
<wgt id='3020'>0.22361E+02</wgt>
<wgt id='3021'>0.22254E+02</wgt>
<wgt id='3022'>0.22359E+02</wgt>
<wgt id='3023'>0.22338E+02</wgt>
<wgt id='3024'>0.22422E+02</wgt>
<wgt id='3025'>0.22366E+02</wgt>
<wgt id='3026'>0.22351E+02</wgt>
<wgt id='3027'>0.22393E+02</wgt>
<wgt id='3028'>0.22422E+02</wgt>
<wgt id='3029'>0.22458E+02</wgt>
<wgt id='3030'>0.22321E+02</wgt>
<wgt id='3031'>0.22339E+02</wgt>
<wgt id='3032'>0.22325E+02</wgt>
<wgt id='3033'>0.22296E+02</wgt>
<wgt id='3034'>0.22367E+02</wgt>
<wgt id='3035'>0.22318E+02</wgt>
<wgt id='3036'>0.22367E+02</wgt>
<wgt id='3037'>0.22383E+02</wgt>
<wgt id='3038'>0.22370E+02</wgt>
<wgt id='3039'>0.22420E+02</wgt>
<wgt id='3040'>0.22366E+02</wgt>
<wgt id='3041'>0.22339E+02</wgt>
<wgt id='3042'>0.22381E+02</wgt>
<wgt id='3043'>0.22377E+02</wgt>
<wgt id='3044'>0.22387E+02</wgt>
<wgt id='3045'>0.22362E+02</wgt>
<wgt id='3046'>0.22358E+02</wgt>
<wgt id='3047'>0.22371E+02</wgt>
<wgt id='3048'>0.22360E+02</wgt>
<wgt id='3049'>0.22363E+02</wgt>
<wgt id='3050'>0.22371E+02</wgt>
<wgt id='3051'>0.22360E+02</wgt>
<wgt id='3052'>0.22378E+02</wgt>
<wgt id='3053'>0.22380E+02</wgt>
<wgt id='3054'>0.22381E+02</wgt>
<wgt id='3055'>0.22409E+02</wgt>
<wgt id='3056'>0.22367E+02</wgt>
<wgt id='3057'>0.22389E+02</wgt>
<wgt id='3058'>0.22377E+02</wgt>
<wgt id='3059'>0.22375E+02</wgt>
<wgt id='3060'>0.22375E+02</wgt>
<wgt id='3061'>0.22392E+02</wgt>
<wgt id='3062'>0.22374E+02</wgt>
<wgt id='3063'>0.22354E+02</wgt>
<wgt id='3064'>0.22381E+02</wgt>
<wgt id='3065'>0.22363E+02</wgt>
<wgt id='3066'>0.22370E+02</wgt>
<wgt id='3067'>0.22372E+02</wgt>
<wgt id='3068'>0.22375E+02</wgt>
<wgt id='3069'>0.22365E+02</wgt>
<wgt id='3070'>0.22355E+02</wgt>
<wgt id='3071'>0.22372E+02</wgt>
<wgt id='3072'>0.22380E+02</wgt>
<wgt id='3073'>0.22383E+02</wgt>
<wgt id='3074'>0.22359E+02</wgt>
<wgt id='3075'>0.22379E+02</wgt>
<wgt id='3076'>0.22377E+02</wgt>
<wgt id='3077'>0.22370E+02</wgt>
<wgt id='3078'>0.22373E+02</wgt>
<wgt id='3079'>0.22372E+02</wgt>
<wgt id='3080'>0.22370E+02</wgt>
<wgt id='3081'>0.22370E+02</wgt>
<wgt id='3082'>0.22377E+02</wgt>
<wgt id='3083'>0.22364E+02</wgt>
<wgt id='3084'>0.22370E+02</wgt>
<wgt id='3085'>0.22375E+02</wgt>
<wgt id='3086'>0.22370E+02</wgt>
<wgt id='3087'>0.22365E+02</wgt>
<wgt id='3088'>0.22369E+02</wgt>
<wgt id='3089'>0.22375E+02</wgt>
<wgt id='3090'>0.22370E+02</wgt>
<wgt id='3091'>0.22369E+02</wgt>
<wgt id='3092'>0.22372E+02</wgt>
<wgt id='3093'>0.22376E+02</wgt>
<wgt id='3094'>0.22364E+02</wgt>
<wgt id='3095'>0.22366E+02</wgt>
<wgt id='3096'>0.22374E+02</wgt>
<wgt id='3097'>0.22381E+02</wgt>
<wgt id='3098'>0.22371E+02</wgt>
<wgt id='3099'>0.22367E+02</wgt>
<wgt id='3100'>0.22368E+02</wgt>
<wgt id='3101'>0.22785E+02</wgt>
<wgt id='3102'>0.22130E+02</wgt>
<wgt id='5000'>0.20491E+02</wgt>
<wgt id='5001'>0.20310E+02</wgt>
<wgt id='5002'>0.20427E+02</wgt>
<wgt id='5003'>0.20196E+02</wgt>
<wgt id='5004'>0.20795E+02</wgt>
<wgt id='5005'>0.19655E+02</wgt>
<wgt id='5006'>0.22034E+02</wgt>
<wgt id='5007'>0.21105E+02</wgt>
<wgt id='5008'>0.19778E+02</wgt>
<wgt id='5009'>0.21284E+02</wgt>
<wgt id='5010'>0.20165E+02</wgt>
<wgt id='5011'>0.20379E+02</wgt>
<wgt id='5012'>0.20476E+02</wgt>
<wgt id='5013'>0.19080E+02</wgt>
<wgt id='5014'>0.20166E+02</wgt>
<wgt id='5015'>0.20894E+02</wgt>
<wgt id='5016'>0.19305E+02</wgt>
<wgt id='5017'>0.20923E+02</wgt>
<wgt id='5018'>0.20027E+02</wgt>
<wgt id='5019'>0.19915E+02</wgt>
<wgt id='5020'>0.20998E+02</wgt>
<wgt id='5021'>0.20711E+02</wgt>
<wgt id='5022'>0.20349E+02</wgt>
<wgt id='5023'>0.20422E+02</wgt>
<wgt id='5024'>0.20551E+02</wgt>
<wgt id='5025'>0.20262E+02</wgt>
<wgt id='5026'>0.20679E+02</wgt>
<wgt id='5027'>0.20989E+02</wgt>
<wgt id='5028'>0.19656E+02</wgt>
<wgt id='5029'>0.19595E+02</wgt>
<wgt id='5030'>0.21028E+02</wgt>
<wgt id='5031'>0.20010E+02</wgt>
<wgt id='5032'>0.21186E+02</wgt>
<wgt id='5033'>0.20019E+02</wgt>
<wgt id='5034'>0.20897E+02</wgt>
<wgt id='5035'>0.19429E+02</wgt>
<wgt id='5036'>0.21387E+02</wgt>
<wgt id='5037'>0.20945E+02</wgt>
<wgt id='5038'>0.19953E+02</wgt>
<wgt id='5039'>0.20964E+02</wgt>
<wgt id='5040'>0.20273E+02</wgt>
<wgt id='5041'>0.19880E+02</wgt>
<wgt id='5042'>0.20602E+02</wgt>
<wgt id='5043'>0.20866E+02</wgt>
<wgt id='5044'>0.19145E+02</wgt>
<wgt id='5045'>0.21954E+02</wgt>
<wgt id='5046'>0.20648E+02</wgt>
<wgt id='5047'>0.20774E+02</wgt>
<wgt id='5048'>0.20967E+02</wgt>
<wgt id='5049'>0.20455E+02</wgt>
<wgt id='5050'>0.20574E+02</wgt>
<wgt id='5051'>0.20597E+02</wgt>
<wgt id='5052'>0.20393E+02</wgt>
<wgt id='5053'>0.20730E+02</wgt>
<wgt id='5054'>0.22157E+02</wgt>
<wgt id='5055'>0.20383E+02</wgt>
<wgt id='5056'>0.20478E+02</wgt>
<wgt id='5060'>0.21051E+02</wgt>
<wgt id='5070'>0.19704E+02</wgt>
<wgt id='4000'>0.22439E+02</wgt>
<wgt id='4001'>0.22451E+02</wgt>
<wgt id='4002'>0.22506E+02</wgt>
<wgt id='4003'>0.24253E+02</wgt>
<wgt id='4004'>0.22125E+02</wgt>
<wgt id='4005'>0.22628E+02</wgt>
<wgt id='4006'>0.22169E+02</wgt>
<wgt id='4007'>0.23094E+02</wgt>
<wgt id='4008'>0.22452E+02</wgt>
<wgt id='4009'>0.21249E+02</wgt>
<wgt id='4010'>0.23431E+02</wgt>
<wgt id='4011'>0.22923E+02</wgt>
<wgt id='4012'>0.22212E+02</wgt>
<wgt id='4013'>0.20354E+02</wgt>
<wgt id='4014'>0.23678E+02</wgt>
<wgt id='4015'>0.22511E+02</wgt>
<wgt id='4016'>0.22415E+02</wgt>
<wgt id='4017'>0.22259E+02</wgt>
<wgt id='4018'>0.22658E+02</wgt>
<wgt id='4019'>0.22898E+02</wgt>
<wgt id='4020'>0.21902E+02</wgt>
<wgt id='4021'>0.22525E+02</wgt>
<wgt id='4022'>0.22245E+02</wgt>
<wgt id='4023'>0.22216E+02</wgt>
<wgt id='4024'>0.22620E+02</wgt>
<wgt id='4025'>0.21175E+02</wgt>
<wgt id='4026'>0.23633E+02</wgt>
<wgt id='4027'>0.22203E+02</wgt>
<wgt id='4028'>0.22750E+02</wgt>
<wgt id='4029'>0.22037E+02</wgt>
<wgt id='4030'>0.22575E+02</wgt>
<wgt id='4031'>0.22419E+02</wgt>
<wgt id='4032'>0.22464E+02</wgt>
<wgt id='4033'>0.22605E+02</wgt>
<wgt id='4034'>0.22058E+02</wgt>
<wgt id='4035'>0.23574E+02</wgt>
<wgt id='4036'>0.21322E+02</wgt>
<wgt id='4037'>0.22935E+02</wgt>
<wgt id='4038'>0.21642E+02</wgt>
<wgt id='4039'>0.22402E+02</wgt>
<wgt id='4040'>0.22372E+02</wgt>
<wgt id='4041'>0.22993E+02</wgt>
<wgt id='4042'>0.21846E+02</wgt>
<wgt id='4043'>0.23098E+02</wgt>
<wgt id='4044'>0.21531E+02</wgt>
<wgt id='4045'>0.21931E+02</wgt>
<wgt id='4046'>0.22106E+02</wgt>
<wgt id='4047'>0.21769E+02</wgt>
<wgt id='4048'>0.23686E+02</wgt>
<wgt id='4049'>0.23297E+02</wgt>
<wgt id='4050'>0.21450E+02</wgt>
<wgt id='4051'>0.22339E+02</wgt>
<wgt id='4052'>0.22322E+02</wgt>
<wgt id='4053'>0.21865E+02</wgt>
<wgt id='4054'>0.22521E+02</wgt>
<wgt id='4055'>0.22219E+02</wgt>
<wgt id='4056'>0.22564E+02</wgt>
<wgt id='4060'>0.22755E+02</wgt>
<wgt id='4070'>0.21931E+02</wgt>
<wgt id='4080'>0.24104E+02</wgt>
<wgt id='6000'>0.22510E+02</wgt>
<wgt id='6001'>0.22547E+02</wgt>
<wgt id='6002'>0.22473E+02</wgt>
<wgt id='6003'>0.22508E+02</wgt>
<wgt id='6004'>0.22511E+02</wgt>
<wgt id='6005'>0.22550E+02</wgt>
<wgt id='6006'>0.22475E+02</wgt>
<wgt id='6007'>0.22376E+02</wgt>
<wgt id='6008'>0.22663E+02</wgt>
<wgt id='6009'>0.22696E+02</wgt>
<wgt id='6010'>0.22332E+02</wgt>
<wgt id='6011'>0.22611E+02</wgt>
<wgt id='6012'>0.22289E+02</wgt>
<wgt id='6013'>0.22454E+02</wgt>
<wgt id='6014'>0.22612E+02</wgt>
<wgt id='6015'>0.22394E+02</wgt>
<wgt id='6016'>0.22579E+02</wgt>
<wgt id='6017'>0.22245E+02</wgt>
<wgt id='6018'>0.22825E+02</wgt>
<wgt id='6019'>0.22522E+02</wgt>
<wgt id='6020'>0.22502E+02</wgt>
<wgt id='6021'>0.22415E+02</wgt>
<wgt id='6022'>0.22638E+02</wgt>
<wgt id='6023'>0.22241E+02</wgt>
<wgt id='6024'>0.22699E+02</wgt>
<wgt id='6025'>0.21812E+02</wgt>
<wgt id='6026'>0.23143E+02</wgt>
<wgt id='6027'>0.22634E+02</wgt>
<wgt id='6028'>0.22520E+02</wgt>
<wgt id='6029'>0.22910E+02</wgt>
<wgt id='6030'>0.22043E+02</wgt>
<wgt id='6031'>0.22774E+02</wgt>
<wgt id='6032'>0.22197E+02</wgt>
<wgt id='6033'>0.22514E+02</wgt>
<wgt id='6034'>0.22497E+02</wgt>
<wgt id='6035'>0.22439E+02</wgt>
<wgt id='6036'>0.22789E+02</wgt>
<wgt id='6037'>0.22588E+02</wgt>
<wgt id='6038'>0.22506E+02</wgt>
<wgt id='6039'>0.22501E+02</wgt>
<wgt id='6040'>0.22518E+02</wgt>
<wgt id='6041'>0.22571E+02</wgt>
<wgt id='6042'>0.22455E+02</wgt>
<wgt id='6043'>0.23093E+02</wgt>
<wgt id='6044'>0.22282E+02</wgt>
<wgt id='6045'>0.22476E+02</wgt>
<wgt id='6046'>0.22603E+02</wgt>
<wgt id='6047'>0.22044E+02</wgt>
<wgt id='6048'>0.22643E+02</wgt>
<wgt id='6049'>0.22305E+02</wgt>
<wgt id='6050'>0.22582E+02</wgt>
<wgt id='7000'>0.20705E+02</wgt>
<wgt id='7001'>0.20719E+02</wgt>
<wgt id='7002'>0.20686E+02</wgt>
<wgt id='7003'>0.20811E+02</wgt>
<wgt id='7004'>0.20599E+02</wgt>
<wgt id='7005'>0.20733E+02</wgt>
<wgt id='7006'>0.20695E+02</wgt>
<wgt id='7007'>0.20543E+02</wgt>
<wgt id='7008'>0.20868E+02</wgt>
<wgt id='7009'>0.20796E+02</wgt>
<wgt id='7010'>0.20617E+02</wgt>
<wgt id='7011'>0.20258E+02</wgt>
<wgt id='7012'>0.20903E+02</wgt>
<wgt id='7013'>0.20702E+02</wgt>
<wgt id='7014'>0.20710E+02</wgt>
<wgt id='7015'>0.20571E+02</wgt>
<wgt id='7016'>0.20854E+02</wgt>
<wgt id='7017'>0.20487E+02</wgt>
<wgt id='7018'>0.20825E+02</wgt>
<wgt id='7019'>0.20669E+02</wgt>
<wgt id='7020'>0.20756E+02</wgt>
<wgt id='7021'>0.20669E+02</wgt>
<wgt id='7022'>0.20729E+02</wgt>
<wgt id='7023'>0.21138E+02</wgt>
<wgt id='7024'>0.20285E+02</wgt>
<wgt id='7025'>0.20881E+02</wgt>
<wgt id='7026'>0.20285E+02</wgt>
<wgt id='7027'>0.20912E+02</wgt>
<wgt id='7028'>0.20633E+02</wgt>
<wgt id='7029'>0.20432E+02</wgt>
<wgt id='7030'>0.21413E+02</wgt>
<wgt id='7031'>0.20779E+02</wgt>
<wgt id='7032'>0.20560E+02</wgt>
<wgt id='7033'>0.20617E+02</wgt>
<wgt id='7034'>0.20910E+02</wgt>
<wgt id='7035'>0.20955E+02</wgt>
<wgt id='7036'>0.20623E+02</wgt>
<wgt id='7037'>0.20727E+02</wgt>
<wgt id='7038'>0.20730E+02</wgt>
<wgt id='7039'>0.20710E+02</wgt>
<wgt id='7040'>0.20698E+02</wgt>
<wgt id='7041'>0.20602E+02</wgt>
<wgt id='7042'>0.20788E+02</wgt>
<wgt id='7043'>0.20731E+02</wgt>
<wgt id='7044'>0.20572E+02</wgt>
<wgt id='7045'>0.20630E+02</wgt>
<wgt id='7046'>0.20570E+02</wgt>
<wgt id='7047'>0.20609E+02</wgt>
<wgt id='7048'>0.20730E+02</wgt>
<wgt id='7049'>0.20861E+02</wgt>
<wgt id='7050'>0.20468E+02</wgt>
<wgt id='7060'>0.32735E+02</wgt>
<wgt id='8000'>0.21389E+02</wgt>
<wgt id='8001'>0.21382E+02</wgt>
<wgt id='8002'>0.21399E+02</wgt>
<wgt id='8003'>0.21393E+02</wgt>
<wgt id='8004'>0.21388E+02</wgt>
<wgt id='8005'>0.21282E+02</wgt>
<wgt id='8006'>0.21336E+02</wgt>
<wgt id='8007'>0.21267E+02</wgt>
<wgt id='8008'>0.21435E+02</wgt>
<wgt id='8009'>0.21503E+02</wgt>
<wgt id='8010'>0.21420E+02</wgt>
<wgt id='8011'>0.21359E+02</wgt>
<wgt id='8012'>0.21421E+02</wgt>
<wgt id='8013'>0.21439E+02</wgt>
<wgt id='8014'>0.21312E+02</wgt>
<wgt id='8015'>0.21366E+02</wgt>
<wgt id='8016'>0.21384E+02</wgt>
<wgt id='8017'>0.21417E+02</wgt>
<wgt id='8018'>0.21320E+02</wgt>
<wgt id='8019'>0.21477E+02</wgt>
<wgt id='8020'>0.21219E+02</wgt>
<wgt id='8021'>0.21423E+02</wgt>
<wgt id='8022'>0.21085E+02</wgt>
<wgt id='8023'>0.21467E+02</wgt>
<wgt id='8024'>0.21579E+02</wgt>
<wgt id='8025'>0.21592E+02</wgt>
<wgt id='8026'>0.21471E+02</wgt>
<wgt id='8027'>0.21283E+02</wgt>
<wgt id='8028'>0.21431E+02</wgt>
<wgt id='8029'>0.21088E+02</wgt>
<wgt id='8500'>0.21988E+02</wgt>
<wgt id='8501'>0.22045E+02</wgt>
<wgt id='8502'>0.22355E+02</wgt>
<wgt id='8503'>0.22293E+02</wgt>
<wgt id='8504'>0.21971E+02</wgt>
<wgt id='8505'>0.21795E+02</wgt>
<wgt id='8506'>0.21682E+02</wgt>
<wgt id='8507'>0.22576E+02</wgt>
<wgt id='8508'>0.23151E+02</wgt>
<wgt id='8509'>0.21481E+02</wgt>
<wgt id='8510'>0.22537E+02</wgt>
<wgt id='8511'>0.22051E+02</wgt>
<wgt id='8512'>0.21374E+02</wgt>
<wgt id='8513'>0.22093E+02</wgt>
<wgt id='8514'>0.22057E+02</wgt>
<wgt id='8515'>0.21850E+02</wgt>
<wgt id='8516'>0.22168E+02</wgt>
<wgt id='8517'>0.22006E+02</wgt>
<wgt id='8518'>0.21991E+02</wgt>
<wgt id='8519'>0.22003E+02</wgt>
<wgt id='8520'>0.22046E+02</wgt>
<wgt id='8521'>0.21836E+02</wgt>
<wgt id='8522'>0.21966E+02</wgt>
<wgt id='8523'>0.21974E+02</wgt>
<wgt id='8524'>0.21968E+02</wgt>
<wgt id='8525'>0.21929E+02</wgt>
<wgt id='8526'>0.21970E+02</wgt>
<wgt id='8527'>0.22039E+02</wgt>
<wgt id='8528'>0.21895E+02</wgt>
<wgt id='8529'>0.21969E+02</wgt>
<wgt id='8530'>0.21920E+02</wgt>
<wgt id='8531'>0.21983E+02</wgt>
<wgt id='8532'>0.21992E+02</wgt>
<wgt id='8533'>0.21955E+02</wgt>
<wgt id='8534'>0.21997E+02</wgt>
<wgt id='8535'>0.22026E+02</wgt>
<wgt id='8536'>0.21953E+02</wgt>
<wgt id='8537'>0.22008E+02</wgt>
<wgt id='8538'>0.21945E+02</wgt>
<wgt id='8539'>0.21988E+02</wgt>
<wgt id='8540'>0.21966E+02</wgt>
<wgt id='8541'>0.21983E+02</wgt>
<wgt id='8542'>0.21987E+02</wgt>
<wgt id='8543'>0.21984E+02</wgt>
<wgt id='8544'>0.21984E+02</wgt>
<wgt id='8545'>0.22005E+02</wgt>
<wgt id='8546'>0.22013E+02</wgt>
<wgt id='8547'>0.21976E+02</wgt>
<wgt id='8548'>0.21960E+02</wgt>
<wgt id='8549'>0.21985E+02</wgt>
<wgt id='8550'>0.22014E+02</wgt>
<wgt id='8551'>0.21984E+02</wgt>
<wgt id='8552'>0.22013E+02</wgt>
<wgt id='8553'>0.22008E+02</wgt>
<wgt id='8554'>0.21998E+02</wgt>
<wgt id='8555'>0.21989E+02</wgt>
<wgt id='8556'>0.21991E+02</wgt>
<wgt id='8557'>0.21977E+02</wgt>
<wgt id='8558'>0.21992E+02</wgt>
<wgt id='8559'>0.21981E+02</wgt>
<wgt id='8560'>0.21987E+02</wgt>
<wgt id='8561'>0.21974E+02</wgt>
<wgt id='8562'>0.21969E+02</wgt>
<wgt id='8563'>0.21992E+02</wgt>
<wgt id='8564'>0.21988E+02</wgt>
<wgt id='8565'>0.21977E+02</wgt>
<wgt id='8566'>0.21966E+02</wgt>
<wgt id='8567'>0.21986E+02</wgt>
<wgt id='8568'>0.21984E+02</wgt>
<wgt id='8569'>0.21991E+02</wgt>
<wgt id='8570'>0.22003E+02</wgt>
<wgt id='8571'>0.21991E+02</wgt>
<wgt id='8572'>0.21979E+02</wgt>
<wgt id='8573'>0.21978E+02</wgt>
<wgt id='8574'>0.22017E+02</wgt>
<wgt id='8575'>0.21990E+02</wgt>
<wgt id='8576'>0.21974E+02</wgt>
<wgt id='8577'>0.21996E+02</wgt>
<wgt id='8578'>0.22000E+02</wgt>
<wgt id='8579'>0.21987E+02</wgt>
<wgt id='8580'>0.21982E+02</wgt>
<wgt id='8581'>0.21983E+02</wgt>
<wgt id='8582'>0.21973E+02</wgt>
<wgt id='8583'>0.22004E+02</wgt>
<wgt id='8584'>0.21980E+02</wgt>
<wgt id='8585'>0.21994E+02</wgt>
<wgt id='8586'>0.21981E+02</wgt>
<wgt id='8587'>0.21981E+02</wgt>
<wgt id='8588'>0.21977E+02</wgt>
<wgt id='8589'>0.21989E+02</wgt>
<wgt id='8590'>0.21984E+02</wgt>
<wgt id='8591'>0.21995E+02</wgt>
<wgt id='8592'>0.21988E+02</wgt>
<wgt id='8593'>0.21976E+02</wgt>
<wgt id='8594'>0.21999E+02</wgt>
<wgt id='8595'>0.21997E+02</wgt>
<wgt id='8596'>0.21978E+02</wgt>
<wgt id='8597'>0.21988E+02</wgt>
<wgt id='8598'>0.21992E+02</wgt>
<wgt id='8599'>0.21993E+02</wgt>
<wgt id='8600'>0.21987E+02</wgt>
<wgt id='8601'>0.22166E+02</wgt>
<wgt id='8602'>0.21656E+02</wgt>
<wgt id='9000'>0.20765E+02</wgt>
<wgt id='9001'>0.20815E+02</wgt>
<wgt id='9002'>0.20990E+02</wgt>
<wgt id='9003'>0.20392E+02</wgt>
<wgt id='9004'>0.20613E+02</wgt>
<wgt id='9005'>0.20878E+02</wgt>
<wgt id='9006'>0.20646E+02</wgt>
<wgt id='9007'>0.20963E+02</wgt>
<wgt id='9008'>0.20916E+02</wgt>
<wgt id='9009'>0.20707E+02</wgt>
<wgt id='9010'>0.20780E+02</wgt>
<wgt id='9011'>0.21192E+02</wgt>
<wgt id='9012'>0.19971E+02</wgt>
<wgt id='9013'>0.20143E+02</wgt>
<wgt id='9014'>0.20144E+02</wgt>
<wgt id='9015'>0.20741E+02</wgt>
<wgt id='9016'>0.20801E+02</wgt>
<wgt id='9017'>0.20933E+02</wgt>
<wgt id='9018'>0.20757E+02</wgt>
<wgt id='9019'>0.20691E+02</wgt>
<wgt id='9020'>0.20794E+02</wgt>
<wgt id='9021'>0.20691E+02</wgt>
<wgt id='9022'>0.20764E+02</wgt>
<wgt id='9023'>0.20792E+02</wgt>
<wgt id='9024'>0.20749E+02</wgt>
<wgt id='9025'>0.20787E+02</wgt>
<wgt id='9026'>0.20748E+02</wgt>
<wgt id='9027'>0.20730E+02</wgt>
<wgt id='9028'>0.20787E+02</wgt>
<wgt id='9029'>0.20791E+02</wgt>
<wgt id='9030'>0.20733E+02</wgt>
<wgt id='9031'>0.20778E+02</wgt>
<wgt id='9032'>0.20800E+02</wgt>
<wgt id='9033'>0.20801E+02</wgt>
<wgt id='9034'>0.20747E+02</wgt>
<wgt id='9035'>0.20815E+02</wgt>
<wgt id='9036'>0.20757E+02</wgt>
<wgt id='9037'>0.20777E+02</wgt>
<wgt id='9038'>0.20756E+02</wgt>
<wgt id='9039'>0.20774E+02</wgt>
<wgt id='9040'>0.20724E+02</wgt>
<wgt id='9041'>0.20747E+02</wgt>
<wgt id='9042'>0.20755E+02</wgt>
<wgt id='9043'>0.20756E+02</wgt>
<wgt id='9044'>0.20764E+02</wgt>
<wgt id='9045'>0.20749E+02</wgt>
<wgt id='9046'>0.20740E+02</wgt>
<wgt id='9047'>0.20746E+02</wgt>
<wgt id='9048'>0.20765E+02</wgt>
<wgt id='9049'>0.20763E+02</wgt>
<wgt id='9050'>0.20763E+02</wgt>
<wgt id='9051'>0.20766E+02</wgt>
<wgt id='9052'>0.20768E+02</wgt>
<wgt id='9053'>0.20780E+02</wgt>
<wgt id='9054'>0.20761E+02</wgt>
<wgt id='9055'>0.20761E+02</wgt>
<wgt id='9056'>0.20772E+02</wgt>
<wgt id='9057'>0.20757E+02</wgt>
<wgt id='9058'>0.20770E+02</wgt>
<wgt id='9059'>0.20763E+02</wgt>
<wgt id='9060'>0.20767E+02</wgt>
<wgt id='9061'>0.20762E+02</wgt>
<wgt id='9062'>0.20765E+02</wgt>
<wgt id='9063'>0.20766E+02</wgt>
<wgt id='9064'>0.20763E+02</wgt>
<wgt id='9065'>0.20766E+02</wgt>
<wgt id='9066'>0.20762E+02</wgt>
<wgt id='9067'>0.20767E+02</wgt>
<wgt id='9068'>0.20755E+02</wgt>
<wgt id='9069'>0.20773E+02</wgt>
<wgt id='9070'>0.20764E+02</wgt>
<wgt id='9071'>0.20768E+02</wgt>
<wgt id='9072'>0.20773E+02</wgt>
<wgt id='9073'>0.20763E+02</wgt>
<wgt id='9074'>0.20763E+02</wgt>
<wgt id='9075'>0.20760E+02</wgt>
<wgt id='9076'>0.20769E+02</wgt>
<wgt id='9077'>0.20769E+02</wgt>
<wgt id='9078'>0.20773E+02</wgt>
<wgt id='9079'>0.20770E+02</wgt>
<wgt id='9080'>0.20761E+02</wgt>
<wgt id='9081'>0.20767E+02</wgt>
<wgt id='9082'>0.20765E+02</wgt>
<wgt id='9083'>0.20764E+02</wgt>
<wgt id='9084'>0.20767E+02</wgt>
<wgt id='9085'>0.20767E+02</wgt>
<wgt id='9086'>0.20763E+02</wgt>
<wgt id='9087'>0.20766E+02</wgt>
<wgt id='9088'>0.20764E+02</wgt>
<wgt id='9089'>0.20764E+02</wgt>
<wgt id='9090'>0.20766E+02</wgt>
<wgt id='9091'>0.20769E+02</wgt>
<wgt id='9092'>0.20768E+02</wgt>
<wgt id='9093'>0.20763E+02</wgt>
<wgt id='9094'>0.20768E+02</wgt>
<wgt id='9095'>0.20768E+02</wgt>
<wgt id='9096'>0.20761E+02</wgt>
<wgt id='9097'>0.20764E+02</wgt>
<wgt id='9098'>0.20768E+02</wgt>
<wgt id='9099'>0.20760E+02</wgt>
<wgt id='9100'>0.20764E+02</wgt>
<wgt id='9101'>0.21122E+02</wgt>
<wgt id='9102'>0.20237E+02</wgt>
<wgt id='10000'>0.21990E+02</wgt>
<wgt id='10001'>0.22079E+02</wgt>
<wgt id='10002'>0.22192E+02</wgt>
<wgt id='10003'>0.22015E+02</wgt>
<wgt id='10004'>0.22616E+02</wgt>
<wgt id='10005'>0.23416E+02</wgt>
<wgt id='10006'>0.22101E+02</wgt>
<wgt id='10007'>0.21989E+02</wgt>
<wgt id='10008'>0.21901E+02</wgt>
<wgt id='10009'>0.22049E+02</wgt>
<wgt id='10010'>0.21882E+02</wgt>
<wgt id='10011'>0.22120E+02</wgt>
<wgt id='10012'>0.21901E+02</wgt>
<wgt id='10013'>0.21936E+02</wgt>
<wgt id='10014'>0.22086E+02</wgt>
<wgt id='10015'>0.22075E+02</wgt>
<wgt id='10016'>0.22146E+02</wgt>
<wgt id='10017'>0.21437E+02</wgt>
<wgt id='10018'>0.21989E+02</wgt>
<wgt id='10019'>0.21978E+02</wgt>
<wgt id='10020'>0.22070E+02</wgt>
<wgt id='10021'>0.22017E+02</wgt>
<wgt id='10022'>0.22016E+02</wgt>
<wgt id='10023'>0.21977E+02</wgt>
<wgt id='10024'>0.22029E+02</wgt>
<wgt id='10025'>0.22000E+02</wgt>
<wgt id='10026'>0.21884E+02</wgt>
<wgt id='10027'>0.21928E+02</wgt>
<wgt id='10028'>0.21688E+02</wgt>
<wgt id='10029'>0.22025E+02</wgt>
<wgt id='10030'>0.21991E+02</wgt>
<wgt id='10031'>0.22166E+02</wgt>
<wgt id='10032'>0.21656E+02</wgt>
<wgt id='11000'>0.20766E+02</wgt>
<wgt id='11001'>0.21205E+02</wgt>
<wgt id='11002'>0.20873E+02</wgt>
<wgt id='11003'>0.20716E+02</wgt>
<wgt id='11004'>0.20936E+02</wgt>
<wgt id='11005'>0.20130E+02</wgt>
<wgt id='11006'>0.20734E+02</wgt>
<wgt id='11007'>0.20686E+02</wgt>
<wgt id='11008'>0.20631E+02</wgt>
<wgt id='11009'>0.20545E+02</wgt>
<wgt id='11010'>0.21078E+02</wgt>
<wgt id='11011'>0.20531E+02</wgt>
<wgt id='11012'>0.20818E+02</wgt>
<wgt id='11013'>0.20923E+02</wgt>
<wgt id='11014'>0.20632E+02</wgt>
<wgt id='11015'>0.20715E+02</wgt>
<wgt id='11016'>0.20704E+02</wgt>
<wgt id='11017'>0.21116E+02</wgt>
<wgt id='11018'>0.20775E+02</wgt>
<wgt id='11019'>0.20752E+02</wgt>
<wgt id='11020'>0.20795E+02</wgt>
<wgt id='11021'>0.20928E+02</wgt>
<wgt id='11022'>0.21646E+02</wgt>
<wgt id='11023'>0.20732E+02</wgt>
<wgt id='11024'>0.20722E+02</wgt>
<wgt id='11025'>0.20636E+02</wgt>
<wgt id='11026'>0.20774E+02</wgt>
<wgt id='11027'>0.20779E+02</wgt>
<wgt id='11028'>0.20744E+02</wgt>
<wgt id='11029'>0.20704E+02</wgt>
<wgt id='11030'>0.20774E+02</wgt>
<wgt id='11031'>0.21122E+02</wgt>
<wgt id='11032'>0.20237E+02</wgt>
<wgt id='12000'>0.26519E+02</wgt>
<wgt id='12001'>0.26460E+02</wgt>
<wgt id='12002'>0.26578E+02</wgt>
<wgt id='12003'>0.26669E+02</wgt>
<wgt id='12004'>0.26369E+02</wgt>
<wgt id='12005'>0.26571E+02</wgt>
<wgt id='12006'>0.26467E+02</wgt>
<wgt id='12007'>0.26588E+02</wgt>
<wgt id='12008'>0.26453E+02</wgt>
<wgt id='12009'>0.26622E+02</wgt>
<wgt id='12010'>0.26418E+02</wgt>
<wgt id='12011'>0.26576E+02</wgt>
<wgt id='12012'>0.26451E+02</wgt>
<wgt id='12013'>0.26364E+02</wgt>
<wgt id='12014'>0.26676E+02</wgt>
<wgt id='12015'>0.26458E+02</wgt>
<wgt id='12016'>0.26549E+02</wgt>
<wgt id='12017'>0.26560E+02</wgt>
<wgt id='12018'>0.26407E+02</wgt>
<wgt id='12019'>0.26328E+02</wgt>
<wgt id='12020'>0.26729E+02</wgt>
<wgt id='12021'>0.26774E+02</wgt>
<wgt id='12022'>0.26197E+02</wgt>
<wgt id='12023'>0.26479E+02</wgt>
<wgt id='12024'>0.26316E+02</wgt>
<wgt id='12025'>0.26765E+02</wgt>
<wgt id='12026'>0.26339E+02</wgt>
<wgt id='12027'>0.26134E+02</wgt>
<wgt id='12028'>0.26947E+02</wgt>
<wgt id='12050'>0.26519E+02</wgt>
<wgt id='12051'>0.26406E+02</wgt>
<wgt id='12052'>0.26670E+02</wgt>
<wgt id='12053'>0.26394E+02</wgt>
<wgt id='12054'>0.26620E+02</wgt>
<wgt id='12055'>0.26690E+02</wgt>
<wgt id='12056'>0.25911E+02</wgt>
<wgt id='12057'>0.26284E+02</wgt>
<wgt id='12058'>0.26722E+02</wgt>
<wgt id='12059'>0.26237E+02</wgt>
<wgt id='12060'>0.26808E+02</wgt>
<wgt id='12061'>0.26659E+02</wgt>
<wgt id='12062'>0.26671E+02</wgt>
<wgt id='12063'>0.26091E+02</wgt>
<wgt id='13000'>0.21581E+02</wgt>
<wgt id='13001'>0.21564E+02</wgt>
<wgt id='13002'>0.21599E+02</wgt>
<wgt id='13003'>0.21675E+02</wgt>
<wgt id='13004'>0.21488E+02</wgt>
<wgt id='13005'>0.21677E+02</wgt>
<wgt id='13006'>0.21487E+02</wgt>
<wgt id='13007'>0.21694E+02</wgt>
<wgt id='13008'>0.21471E+02</wgt>
<wgt id='13009'>0.21687E+02</wgt>
<wgt id='13010'>0.21476E+02</wgt>
<wgt id='13011'>0.21623E+02</wgt>
<wgt id='13012'>0.21541E+02</wgt>
<wgt id='13013'>0.21477E+02</wgt>
<wgt id='13014'>0.21688E+02</wgt>
<wgt id='13015'>0.21522E+02</wgt>
<wgt id='13016'>0.21672E+02</wgt>
<wgt id='13017'>0.21565E+02</wgt>
<wgt id='13018'>0.21587E+02</wgt>
<wgt id='13019'>0.21558E+02</wgt>
<wgt id='13020'>0.21600E+02</wgt>
<wgt id='13021'>0.21076E+02</wgt>
<wgt id='13022'>0.22019E+02</wgt>
<wgt id='13023'>0.21660E+02</wgt>
<wgt id='13024'>0.21483E+02</wgt>
<wgt id='13025'>0.21646E+02</wgt>
<wgt id='13026'>0.21393E+02</wgt>
<wgt id='13027'>0.21658E+02</wgt>
<wgt id='13028'>0.21557E+02</wgt>
<wgt id='13050'>0.21581E+02</wgt>
<wgt id='13051'>0.21501E+02</wgt>
<wgt id='13052'>0.21708E+02</wgt>
<wgt id='13053'>0.21494E+02</wgt>
<wgt id='13054'>0.21642E+02</wgt>
<wgt id='13055'>0.21679E+02</wgt>
<wgt id='13056'>0.21714E+02</wgt>
<wgt id='13057'>0.21413E+02</wgt>
<wgt id='13058'>0.21806E+02</wgt>
<wgt id='13059'>0.21313E+02</wgt>
<wgt id='13060'>0.22090E+02</wgt>
<wgt id='13061'>0.21430E+02</wgt>
<wgt id='13062'>0.21966E+02</wgt>
<wgt id='13063'>0.21216E+02</wgt>
<wgt id='14000'>0.22333E+02</wgt>
<wgt id='14001'>0.22330E+02</wgt>
<wgt id='14002'>0.22327E+02</wgt>
<wgt id='14003'>0.22324E+02</wgt>
<wgt id='14004'>0.22321E+02</wgt>
<wgt id='14005'>0.22318E+02</wgt>
<wgt id='14006'>0.22314E+02</wgt>
<wgt id='14007'>0.22311E+02</wgt>
<wgt id='14008'>0.22308E+02</wgt>
<wgt id='14009'>0.22305E+02</wgt>
<wgt id='14010'>0.22302E+02</wgt>
<wgt id='14011'>0.22299E+02</wgt>
<wgt id='14012'>0.22296E+02</wgt>
<wgt id='14013'>0.22293E+02</wgt>
<wgt id='14014'>0.22290E+02</wgt>
<wgt id='14015'>0.22286E+02</wgt>
<wgt id='14016'>0.22283E+02</wgt>
<wgt id='14017'>0.22280E+02</wgt>
<wgt id='14018'>0.22277E+02</wgt>
<wgt id='14019'>0.22274E+02</wgt>
<wgt id='14020'>0.22271E+02</wgt>
<wgt id='14021'>0.22268E+02</wgt>
<wgt id='14022'>0.22265E+02</wgt>
<wgt id='14023'>0.22262E+02</wgt>
<wgt id='14024'>0.22259E+02</wgt>
<wgt id='14025'>0.22255E+02</wgt>
<wgt id='14026'>0.22252E+02</wgt>
<wgt id='14027'>0.22249E+02</wgt>
<wgt id='14028'>0.22246E+02</wgt>
<wgt id='14029'>0.22243E+02</wgt>
<wgt id='14030'>0.22240E+02</wgt>
<wgt id='15000'>0.20458E+02</wgt>
<wgt id='15001'>0.20510E+02</wgt>
<wgt id='15002'>0.20685E+02</wgt>
<wgt id='15003'>0.20086E+02</wgt>
<wgt id='15004'>0.20308E+02</wgt>
<wgt id='15005'>0.20569E+02</wgt>
<wgt id='15006'>0.20336E+02</wgt>
<wgt id='15007'>0.20652E+02</wgt>
<wgt id='15008'>0.20607E+02</wgt>
<wgt id='15009'>0.20399E+02</wgt>
<wgt id='15010'>0.20471E+02</wgt>
<wgt id='15011'>0.20878E+02</wgt>
<wgt id='15012'>0.19672E+02</wgt>
<wgt id='15013'>0.19839E+02</wgt>
<wgt id='15014'>0.19847E+02</wgt>
<wgt id='15015'>0.20443E+02</wgt>
<wgt id='15016'>0.20491E+02</wgt>
<wgt id='15017'>0.20626E+02</wgt>
<wgt id='15018'>0.20453E+02</wgt>
<wgt id='15019'>0.20384E+02</wgt>
<wgt id='15020'>0.20483E+02</wgt>
<wgt id='15021'>0.20384E+02</wgt>
<wgt id='15022'>0.20457E+02</wgt>
<wgt id='15023'>0.20482E+02</wgt>
<wgt id='15024'>0.20444E+02</wgt>
<wgt id='15025'>0.20489E+02</wgt>
<wgt id='15026'>0.20445E+02</wgt>
<wgt id='15027'>0.20418E+02</wgt>
<wgt id='15028'>0.20479E+02</wgt>
<wgt id='15029'>0.20483E+02</wgt>
<wgt id='15030'>0.20426E+02</wgt>
<wgt id='15031'>0.20466E+02</wgt>
<wgt id='15032'>0.20494E+02</wgt>
<wgt id='15033'>0.20494E+02</wgt>
<wgt id='15034'>0.20442E+02</wgt>
<wgt id='15035'>0.20509E+02</wgt>
<wgt id='15036'>0.20450E+02</wgt>
<wgt id='15037'>0.20470E+02</wgt>
<wgt id='15038'>0.20450E+02</wgt>
<wgt id='15039'>0.20470E+02</wgt>
<wgt id='15040'>0.20417E+02</wgt>
<wgt id='15041'>0.20442E+02</wgt>
<wgt id='15042'>0.20451E+02</wgt>
<wgt id='15043'>0.20446E+02</wgt>
<wgt id='15044'>0.20457E+02</wgt>
<wgt id='15045'>0.20444E+02</wgt>
<wgt id='15046'>0.20432E+02</wgt>
<wgt id='15047'>0.20442E+02</wgt>
<wgt id='15048'>0.20458E+02</wgt>
<wgt id='15049'>0.20457E+02</wgt>
<wgt id='15050'>0.20455E+02</wgt>
<wgt id='15051'>0.20460E+02</wgt>
<wgt id='15052'>0.20462E+02</wgt>
<wgt id='15053'>0.20472E+02</wgt>
<wgt id='15054'>0.20453E+02</wgt>
<wgt id='15055'>0.20453E+02</wgt>
<wgt id='15056'>0.20466E+02</wgt>
<wgt id='15057'>0.20450E+02</wgt>
<wgt id='15058'>0.20461E+02</wgt>
<wgt id='15059'>0.20455E+02</wgt>
<wgt id='15060'>0.20459E+02</wgt>
<wgt id='15061'>0.20455E+02</wgt>
<wgt id='15062'>0.20459E+02</wgt>
<wgt id='15063'>0.20459E+02</wgt>
<wgt id='15064'>0.20456E+02</wgt>
<wgt id='15065'>0.20459E+02</wgt>
<wgt id='15066'>0.20455E+02</wgt>
<wgt id='15067'>0.20461E+02</wgt>
<wgt id='15068'>0.20448E+02</wgt>
<wgt id='15069'>0.20467E+02</wgt>
<wgt id='15070'>0.20458E+02</wgt>
<wgt id='15071'>0.20461E+02</wgt>
<wgt id='15072'>0.20467E+02</wgt>
<wgt id='15073'>0.20457E+02</wgt>
<wgt id='15074'>0.20456E+02</wgt>
<wgt id='15075'>0.20453E+02</wgt>
<wgt id='15076'>0.20461E+02</wgt>
<wgt id='15077'>0.20462E+02</wgt>
<wgt id='15078'>0.20465E+02</wgt>
<wgt id='15079'>0.20463E+02</wgt>
<wgt id='15080'>0.20456E+02</wgt>
<wgt id='15081'>0.20459E+02</wgt>
<wgt id='15082'>0.20458E+02</wgt>
<wgt id='15083'>0.20458E+02</wgt>
<wgt id='15084'>0.20460E+02</wgt>
<wgt id='15085'>0.20460E+02</wgt>
<wgt id='15086'>0.20455E+02</wgt>
<wgt id='15087'>0.20459E+02</wgt>
<wgt id='15088'>0.20458E+02</wgt>
<wgt id='15089'>0.20458E+02</wgt>
<wgt id='15090'>0.20460E+02</wgt>
<wgt id='15091'>0.20463E+02</wgt>
<wgt id='15092'>0.20462E+02</wgt>
<wgt id='15093'>0.20456E+02</wgt>
<wgt id='15094'>0.20462E+02</wgt>
<wgt id='15095'>0.20461E+02</wgt>
<wgt id='15096'>0.20454E+02</wgt>
<wgt id='15097'>0.20457E+02</wgt>
<wgt id='15098'>0.20461E+02</wgt>
<wgt id='15099'>0.20453E+02</wgt>
<wgt id='15100'>0.20456E+02</wgt>
<wgt id='15101'>0.20457E+02</wgt>
<wgt id='15102'>0.20455E+02</wgt>
<wgt id='15103'>0.20458E+02</wgt>
<wgt id='15104'>0.20458E+02</wgt>
<wgt id='15105'>0.20459E+02</wgt>
<wgt id='15106'>0.20458E+02</wgt>
<wgt id='15107'>0.20456E+02</wgt>
<wgt id='1500'>0.20811E+02</wgt>
<wgt id='1501'>0.16235E+02</wgt>
<wgt id='1502'>0.21084E+02</wgt>
<wgt id='1503'>0.19862E+02</wgt>
<wgt id='1504'>0.20625E+02</wgt>
<wgt id='1505'>0.14831E+02</wgt>
<wgt id='1506'>0.20482E+02</wgt>
<wgt id='1507'>0.21617E+02</wgt>
<wgt id='1508'>0.20754E+02</wgt>
<wgt id='1509'>0.20253E+02</wgt>
<wgt id='1510'>0.19920E+02</wgt>
<wgt id='1511'>0.21579E+02</wgt>
<wgt id='1512'>0.21451E+02</wgt>
<wgt id='1513'>0.21485E+02</wgt>
<wgt id='1514'>0.19664E+02</wgt>
<wgt id='1515'>0.20307E+02</wgt>
<wgt id='1516'>0.21367E+02</wgt>
<wgt id='1517'>0.19816E+02</wgt>
<wgt id='1518'>0.19978E+02</wgt>
<wgt id='1519'>0.21042E+02</wgt>
<wgt id='1520'>0.20274E+02</wgt>
<wgt id='1521'>0.20705E+02</wgt>
<wgt id='1522'>0.21096E+02</wgt>
<wgt id='1523'>0.23316E+02</wgt>
<wgt id='1524'>0.20295E+02</wgt>
<wgt id='1525'>0.21843E+02</wgt>
<wgt id='1526'>0.19707E+02</wgt>
<wgt id='1527'>0.20164E+02</wgt>
<wgt id='1528'>0.20812E+02</wgt>
<wgt id='1529'>0.19593E+02</wgt>
<wgt id='1530'>0.21018E+02</wgt>
<wgt id='1531'>0.20827E+02</wgt>
<wgt id='1532'>0.20041E+02</wgt>
<wgt id='1533'>0.22557E+02</wgt>
<wgt id='1534'>0.21391E+02</wgt>
<wgt id='1535'>0.21784E+02</wgt>
<wgt id='1536'>0.22489E+02</wgt>
<wgt id='1537'>0.21030E+02</wgt>
<wgt id='1538'>0.20594E+02</wgt>
<wgt id='1539'>0.19330E+02</wgt>
<wgt id='1540'>0.22071E+02</wgt>
<wgt id='1541'>0.20349E+02</wgt>
<wgt id='1542'>0.21801E+02</wgt>
<wgt id='1543'>0.21771E+02</wgt>
<wgt id='1544'>0.20396E+02</wgt>
<wgt id='1545'>0.21888E+02</wgt>
<wgt id='1546'>0.20800E+02</wgt>
<wgt id='1547'>0.20216E+02</wgt>
<wgt id='1548'>0.19861E+02</wgt>
<wgt id='1549'>0.21448E+02</wgt>
<wgt id='1550'>0.21274E+02</wgt>
<wgt id='1551'>0.21191E+02</wgt>
<wgt id='1552'>0.21069E+02</wgt>
<wgt id='1553'>0.21587E+02</wgt>
<wgt id='1554'>0.20838E+02</wgt>
<wgt id='1555'>0.21356E+02</wgt>
<wgt id='1556'>0.19543E+02</wgt>
<wgt id='1557'>0.22803E+02</wgt>
<wgt id='1558'>0.20921E+02</wgt>
<wgt id='1559'>0.20702E+02</wgt>
<wgt id='1560'>0.20787E+02</wgt>
<wgt id='1561'>0.21456E+02</wgt>
<wgt id='1562'>0.20547E+02</wgt>
<wgt id='1563'>0.22267E+02</wgt>
<wgt id='1564'>0.20436E+02</wgt>
<wgt id='1565'>0.21537E+02</wgt>
<wgt id='1566'>0.21234E+02</wgt>
<wgt id='1567'>0.21456E+02</wgt>
<wgt id='1568'>0.20144E+02</wgt>
<wgt id='1569'>0.20438E+02</wgt>
<wgt id='1570'>0.21786E+02</wgt>
<wgt id='1571'>0.22530E+02</wgt>
<wgt id='1572'>0.20306E+02</wgt>
<wgt id='1573'>0.18006E+02</wgt>
<wgt id='1574'>0.20880E+02</wgt>
<wgt id='1575'>0.20423E+02</wgt>
<wgt id='1576'>0.20243E+02</wgt>
<wgt id='1577'>0.21591E+02</wgt>
<wgt id='1578'>0.22513E+02</wgt>
<wgt id='1579'>0.20729E+02</wgt>
<wgt id='1580'>0.21464E+02</wgt>
<wgt id='1581'>0.21156E+02</wgt>
<wgt id='1582'>0.21013E+02</wgt>
<wgt id='1583'>0.19990E+02</wgt>
<wgt id='1584'>0.21276E+02</wgt>
<wgt id='1585'>0.19423E+02</wgt>
<wgt id='1586'>0.21003E+02</wgt>
<wgt id='1587'>0.20481E+02</wgt>
<wgt id='1588'>0.20947E+02</wgt>
<wgt id='1589'>0.20741E+02</wgt>
<wgt id='1590'>0.20934E+02</wgt>
<wgt id='1591'>0.19549E+02</wgt>
<wgt id='1592'>0.22406E+02</wgt>
<wgt id='1593'>0.20210E+02</wgt>
<wgt id='1594'>0.21623E+02</wgt>
<wgt id='1595'>0.20426E+02</wgt>
<wgt id='1596'>0.21386E+02</wgt>
<wgt id='1597'>0.21000E+02</wgt>
<wgt id='1598'>0.22907E+02</wgt>
<wgt id='1599'>0.21923E+02</wgt>
<wgt id='1600'>0.19935E+02</wgt>
<wgt id='1601'>0.20774E+02</wgt>
<wgt id='1602'>0.20517E+02</wgt>
<wgt id='1700'>0.20876E+02</wgt>
<wgt id='1800'>0.31855E+02</wgt>
<wgt id='1850'>0.33106E+02</wgt>
<wgt id='1900'>0.28680E+02</wgt>
<wgt id='1950'>0.31539E+02</wgt>
</rwgt>
</event>
<event>
      4   9999  2.16956E+01  1.08326E+01 -1.00000E+00  1.87949E-01
      21    -1     0     0   502   512  0.000000000E+00  0.000000000E+00  1.272672714E+03  1.272672714E+03  0.000000000E+00  0.00000E+00  9.000E+00
      21    -1     0     0   501   502  0.000000000E+00  0.000000000E+00 -4.517320103E+01  4.517320103E+01  0.000000000E+00  0.00000E+00  9.000E+00
      25     1     1     2     0     0 -1.058254617E+01 -2.313922266E+00  4.202041931E+01  1.323173300E+02  1.249992626E+02  0.00000E+00  9.000E+00
      21     1     1     2   501   512  1.058254617E+01  2.313922266E+00  1.185479094E+03  1.185528585E+03  0.000000000E+00  0.00000E+00  9.000E+00
#rwgt            1           1   8.3459806349006147                1        4994           0
<rwgt>
<wgt id='1001'>0.21696E+02</wgt>
<wgt id='1002'>0.16682E+02</wgt>
<wgt id='1003'>0.26717E+02</wgt>
<wgt id='1004'>0.22036E+02</wgt>
<wgt id='1005'>0.18515E+02</wgt>
<wgt id='1006'>0.25460E+02</wgt>
<wgt id='1007'>0.19384E+02</wgt>
<wgt id='1008'>0.12055E+02</wgt>
<wgt id='1009'>0.26909E+02</wgt>
<wgt id='2000'>0.21696E+02</wgt>
<wgt id='2001'>0.21672E+02</wgt>
<wgt id='2002'>0.21855E+02</wgt>
<wgt id='2003'>0.21844E+02</wgt>
<wgt id='2004'>0.21722E+02</wgt>
<wgt id='2005'>0.21603E+02</wgt>
<wgt id='2006'>0.21608E+02</wgt>
<wgt id='2007'>0.21569E+02</wgt>
<wgt id='2008'>0.21652E+02</wgt>
<wgt id='2009'>0.21719E+02</wgt>
<wgt id='2010'>0.21696E+02</wgt>
<wgt id='2011'>0.21865E+02</wgt>
<wgt id='2012'>0.21879E+02</wgt>
<wgt id='2013'>0.22009E+02</wgt>
<wgt id='2014'>0.21825E+02</wgt>
<wgt id='2015'>0.21779E+02</wgt>
<wgt id='2016'>0.21586E+02</wgt>
<wgt id='2017'>0.21679E+02</wgt>
<wgt id='2018'>0.21831E+02</wgt>
<wgt id='2019'>0.21677E+02</wgt>
<wgt id='2020'>0.21769E+02</wgt>
<wgt id='2021'>0.21654E+02</wgt>
<wgt id='2022'>0.21688E+02</wgt>
<wgt id='2023'>0.21721E+02</wgt>
<wgt id='2024'>0.21711E+02</wgt>
<wgt id='2025'>0.21690E+02</wgt>
<wgt id='2026'>0.21696E+02</wgt>
<wgt id='2027'>0.21665E+02</wgt>
<wgt id='2028'>0.21674E+02</wgt>
<wgt id='2029'>0.21755E+02</wgt>
<wgt id='2030'>0.21694E+02</wgt>
<wgt id='2031'>0.21714E+02</wgt>
<wgt id='2032'>0.21671E+02</wgt>
<wgt id='2033'>0.21714E+02</wgt>
<wgt id='2034'>0.21779E+02</wgt>
<wgt id='2035'>0.21662E+02</wgt>
<wgt id='2036'>0.21663E+02</wgt>
<wgt id='2037'>0.21801E+02</wgt>
<wgt id='2038'>0.21695E+02</wgt>
<wgt id='2039'>0.21609E+02</wgt>
<wgt id='2040'>0.21587E+02</wgt>
<wgt id='2041'>0.21600E+02</wgt>
<wgt id='2042'>0.21702E+02</wgt>
<wgt id='2043'>0.21803E+02</wgt>
<wgt id='2044'>0.21766E+02</wgt>
<wgt id='2045'>0.21696E+02</wgt>
<wgt id='2046'>0.21693E+02</wgt>
<wgt id='2047'>0.21674E+02</wgt>
<wgt id='2048'>0.21769E+02</wgt>
<wgt id='2049'>0.21740E+02</wgt>
<wgt id='2050'>0.21712E+02</wgt>
<wgt id='2051'>0.21709E+02</wgt>
<wgt id='2052'>0.21668E+02</wgt>
<wgt id='2053'>0.21668E+02</wgt>
<wgt id='2054'>0.21681E+02</wgt>
<wgt id='2055'>0.21681E+02</wgt>
<wgt id='2056'>0.21725E+02</wgt>
<wgt id='2057'>0.21701E+02</wgt>
<wgt id='2058'>0.21717E+02</wgt>
<wgt id='2059'>0.21686E+02</wgt>
<wgt id='2060'>0.21716E+02</wgt>
<wgt id='2061'>0.21678E+02</wgt>
<wgt id='2062'>0.21694E+02</wgt>
<wgt id='2063'>0.21704E+02</wgt>
<wgt id='2064'>0.21673E+02</wgt>
<wgt id='2065'>0.21695E+02</wgt>
<wgt id='2066'>0.21677E+02</wgt>
<wgt id='2067'>0.21682E+02</wgt>
<wgt id='2068'>0.21695E+02</wgt>
<wgt id='2069'>0.21682E+02</wgt>
<wgt id='2070'>0.21721E+02</wgt>
<wgt id='2071'>0.21690E+02</wgt>
<wgt id='2072'>0.21703E+02</wgt>
<wgt id='2073'>0.21730E+02</wgt>
<wgt id='2074'>0.21708E+02</wgt>
<wgt id='2075'>0.21690E+02</wgt>
<wgt id='2076'>0.21680E+02</wgt>
<wgt id='2077'>0.21714E+02</wgt>
<wgt id='2078'>0.21700E+02</wgt>
<wgt id='2079'>0.21682E+02</wgt>
<wgt id='2080'>0.21710E+02</wgt>
<wgt id='2081'>0.21702E+02</wgt>
<wgt id='2082'>0.21688E+02</wgt>
<wgt id='2083'>0.21709E+02</wgt>
<wgt id='2084'>0.21704E+02</wgt>
<wgt id='2085'>0.21737E+02</wgt>
<wgt id='2086'>0.21687E+02</wgt>
<wgt id='2087'>0.21687E+02</wgt>
<wgt id='2088'>0.21691E+02</wgt>
<wgt id='2089'>0.21677E+02</wgt>
<wgt id='2090'>0.21695E+02</wgt>
<wgt id='2091'>0.21694E+02</wgt>
<wgt id='2092'>0.21705E+02</wgt>
<wgt id='2093'>0.21688E+02</wgt>
<wgt id='2094'>0.21704E+02</wgt>
<wgt id='2095'>0.21696E+02</wgt>
<wgt id='2096'>0.21690E+02</wgt>
<wgt id='2097'>0.21693E+02</wgt>
<wgt id='2098'>0.21688E+02</wgt>
<wgt id='2099'>0.21693E+02</wgt>
<wgt id='2100'>0.21711E+02</wgt>
<wgt id='2101'>0.21596E+02</wgt>
<wgt id='2102'>0.21652E+02</wgt>
<wgt id='2104'>0.21350E+02</wgt>
<wgt id='2105'>0.21347E+02</wgt>
<wgt id='2106'>0.21348E+02</wgt>
<wgt id='2107'>0.21587E+02</wgt>
<wgt id='2108'>0.21782E+02</wgt>
<wgt id='2109'>0.21745E+02</wgt>
<wgt id='2110'>0.21652E+02</wgt>
<wgt id='2111'>0.21511E+02</wgt>
<wgt id='3000'>0.22162E+02</wgt>
<wgt id='3001'>0.22284E+02</wgt>
<wgt id='3002'>0.22016E+02</wgt>
<wgt id='3003'>0.22293E+02</wgt>
<wgt id='3004'>0.22231E+02</wgt>
<wgt id='3005'>0.22330E+02</wgt>
<wgt id='3006'>0.22214E+02</wgt>
<wgt id='3007'>0.22230E+02</wgt>
<wgt id='3008'>0.22075E+02</wgt>
<wgt id='3009'>0.22120E+02</wgt>
<wgt id='3010'>0.22029E+02</wgt>
<wgt id='3011'>0.22248E+02</wgt>
<wgt id='3012'>0.22433E+02</wgt>
<wgt id='3013'>0.21835E+02</wgt>
<wgt id='3014'>0.22299E+02</wgt>
<wgt id='3015'>0.22322E+02</wgt>
<wgt id='3016'>0.22166E+02</wgt>
<wgt id='3017'>0.22329E+02</wgt>
<wgt id='3018'>0.22192E+02</wgt>
<wgt id='3019'>0.22057E+02</wgt>
<wgt id='3020'>0.22174E+02</wgt>
<wgt id='3021'>0.22101E+02</wgt>
<wgt id='3022'>0.22165E+02</wgt>
<wgt id='3023'>0.22146E+02</wgt>
<wgt id='3024'>0.22195E+02</wgt>
<wgt id='3025'>0.22172E+02</wgt>
<wgt id='3026'>0.22143E+02</wgt>
<wgt id='3027'>0.22188E+02</wgt>
<wgt id='3028'>0.22170E+02</wgt>
<wgt id='3029'>0.22133E+02</wgt>
<wgt id='3030'>0.22220E+02</wgt>
<wgt id='3031'>0.22210E+02</wgt>
<wgt id='3032'>0.22152E+02</wgt>
<wgt id='3033'>0.22173E+02</wgt>
<wgt id='3034'>0.22169E+02</wgt>
<wgt id='3035'>0.22301E+02</wgt>
<wgt id='3036'>0.22201E+02</wgt>
<wgt id='3037'>0.22128E+02</wgt>
<wgt id='3038'>0.22187E+02</wgt>
<wgt id='3039'>0.22232E+02</wgt>
<wgt id='3040'>0.22111E+02</wgt>
<wgt id='3041'>0.22127E+02</wgt>
<wgt id='3042'>0.22093E+02</wgt>
<wgt id='3043'>0.22103E+02</wgt>
<wgt id='3044'>0.22211E+02</wgt>
<wgt id='3045'>0.22248E+02</wgt>
<wgt id='3046'>0.22094E+02</wgt>
<wgt id='3047'>0.22109E+02</wgt>
<wgt id='3048'>0.22230E+02</wgt>
<wgt id='3049'>0.22134E+02</wgt>
<wgt id='3050'>0.22250E+02</wgt>
<wgt id='3051'>0.22164E+02</wgt>
<wgt id='3052'>0.22191E+02</wgt>
<wgt id='3053'>0.22140E+02</wgt>
<wgt id='3054'>0.22117E+02</wgt>
<wgt id='3055'>0.22140E+02</wgt>
<wgt id='3056'>0.22181E+02</wgt>
<wgt id='3057'>0.22120E+02</wgt>
<wgt id='3058'>0.22165E+02</wgt>
<wgt id='3059'>0.22170E+02</wgt>
<wgt id='3060'>0.22141E+02</wgt>
<wgt id='3061'>0.22154E+02</wgt>
<wgt id='3062'>0.22173E+02</wgt>
<wgt id='3063'>0.22196E+02</wgt>
<wgt id='3064'>0.22143E+02</wgt>
<wgt id='3065'>0.22186E+02</wgt>
<wgt id='3066'>0.22177E+02</wgt>
<wgt id='3067'>0.22160E+02</wgt>
<wgt id='3068'>0.22159E+02</wgt>
<wgt id='3069'>0.22174E+02</wgt>
<wgt id='3070'>0.22179E+02</wgt>
<wgt id='3071'>0.22169E+02</wgt>
<wgt id='3072'>0.22147E+02</wgt>
<wgt id='3073'>0.22152E+02</wgt>
<wgt id='3074'>0.22132E+02</wgt>
<wgt id='3075'>0.22152E+02</wgt>
<wgt id='3076'>0.22153E+02</wgt>
<wgt id='3077'>0.22166E+02</wgt>
<wgt id='3078'>0.22144E+02</wgt>
<wgt id='3079'>0.22200E+02</wgt>
<wgt id='3080'>0.22195E+02</wgt>
<wgt id='3081'>0.22180E+02</wgt>
<wgt id='3082'>0.22167E+02</wgt>
<wgt id='3083'>0.22157E+02</wgt>
<wgt id='3084'>0.22151E+02</wgt>
<wgt id='3085'>0.22174E+02</wgt>
<wgt id='3086'>0.22158E+02</wgt>
<wgt id='3087'>0.22164E+02</wgt>
<wgt id='3088'>0.22166E+02</wgt>
<wgt id='3089'>0.22161E+02</wgt>
<wgt id='3090'>0.22196E+02</wgt>
<wgt id='3091'>0.22181E+02</wgt>
<wgt id='3092'>0.22167E+02</wgt>
<wgt id='3093'>0.22136E+02</wgt>
<wgt id='3094'>0.22167E+02</wgt>
<wgt id='3095'>0.22165E+02</wgt>
<wgt id='3096'>0.22159E+02</wgt>
<wgt id='3097'>0.22157E+02</wgt>
<wgt id='3098'>0.22147E+02</wgt>
<wgt id='3099'>0.22159E+02</wgt>
<wgt id='3100'>0.22155E+02</wgt>
<wgt id='3101'>0.22018E+02</wgt>
<wgt id='3102'>0.22360E+02</wgt>
<wgt id='5000'>0.19434E+02</wgt>
<wgt id='5001'>0.19131E+02</wgt>
<wgt id='5002'>0.19144E+02</wgt>
<wgt id='5003'>0.19118E+02</wgt>
<wgt id='5004'>0.19238E+02</wgt>
<wgt id='5005'>0.18350E+02</wgt>
<wgt id='5006'>0.19388E+02</wgt>
<wgt id='5007'>0.19314E+02</wgt>
<wgt id='5008'>0.18798E+02</wgt>
<wgt id='5009'>0.19867E+02</wgt>
<wgt id='5010'>0.19172E+02</wgt>
<wgt id='5011'>0.19118E+02</wgt>
<wgt id='5012'>0.19488E+02</wgt>
<wgt id='5013'>0.18348E+02</wgt>
<wgt id='5014'>0.19918E+02</wgt>
<wgt id='5015'>0.19944E+02</wgt>
<wgt id='5016'>0.17831E+02</wgt>
<wgt id='5017'>0.19546E+02</wgt>
<wgt id='5018'>0.19320E+02</wgt>
<wgt id='5019'>0.19522E+02</wgt>
<wgt id='5020'>0.19359E+02</wgt>
<wgt id='5021'>0.19691E+02</wgt>
<wgt id='5022'>0.19268E+02</wgt>
<wgt id='5023'>0.19444E+02</wgt>
<wgt id='5024'>0.19406E+02</wgt>
<wgt id='5025'>0.19314E+02</wgt>
<wgt id='5026'>0.19531E+02</wgt>
<wgt id='5027'>0.20007E+02</wgt>
<wgt id='5028'>0.18467E+02</wgt>
<wgt id='5029'>0.18250E+02</wgt>
<wgt id='5030'>0.20148E+02</wgt>
<wgt id='5031'>0.18790E+02</wgt>
<wgt id='5032'>0.20358E+02</wgt>
<wgt id='5033'>0.19305E+02</wgt>
<wgt id='5034'>0.19516E+02</wgt>
<wgt id='5035'>0.18860E+02</wgt>
<wgt id='5036'>0.19896E+02</wgt>
<wgt id='5037'>0.19509E+02</wgt>
<wgt id='5038'>0.19323E+02</wgt>
<wgt id='5039'>0.19975E+02</wgt>
<wgt id='5040'>0.19184E+02</wgt>
<wgt id='5041'>0.18889E+02</wgt>
<wgt id='5042'>0.19550E+02</wgt>
<wgt id='5043'>0.20119E+02</wgt>
<wgt id='5044'>0.17883E+02</wgt>
<wgt id='5045'>0.20677E+02</wgt>
<wgt id='5046'>0.18917E+02</wgt>
<wgt id='5047'>0.19793E+02</wgt>
<wgt id='5048'>0.19743E+02</wgt>
<wgt id='5049'>0.19487E+02</wgt>
<wgt id='5050'>0.19665E+02</wgt>
<wgt id='5051'>0.19637E+02</wgt>
<wgt id='5052'>0.19511E+02</wgt>
<wgt id='5053'>0.19255E+02</wgt>
<wgt id='5054'>0.20090E+02</wgt>
<wgt id='5055'>0.19187E+02</wgt>
<wgt id='5056'>0.19619E+02</wgt>
<wgt id='5060'>0.19469E+02</wgt>
<wgt id='5070'>0.19217E+02</wgt>
<wgt id='4000'>0.20709E+02</wgt>
<wgt id='4001'>0.20886E+02</wgt>
<wgt id='4002'>0.20977E+02</wgt>
<wgt id='4003'>0.21387E+02</wgt>
<wgt id='4004'>0.20166E+02</wgt>
<wgt id='4005'>0.21107E+02</wgt>
<wgt id='4006'>0.20532E+02</wgt>
<wgt id='4007'>0.21213E+02</wgt>
<wgt id='4008'>0.20491E+02</wgt>
<wgt id='4009'>0.19420E+02</wgt>
<wgt id='4010'>0.21611E+02</wgt>
<wgt id='4011'>0.21373E+02</wgt>
<wgt id='4012'>0.20379E+02</wgt>
<wgt id='4013'>0.18528E+02</wgt>
<wgt id='4014'>0.21903E+02</wgt>
<wgt id='4015'>0.20860E+02</wgt>
<wgt id='4016'>0.20636E+02</wgt>
<wgt id='4017'>0.20418E+02</wgt>
<wgt id='4018'>0.21061E+02</wgt>
<wgt id='4019'>0.21564E+02</wgt>
<wgt id='4020'>0.19768E+02</wgt>
<wgt id='4021'>0.20885E+02</wgt>
<wgt id='4022'>0.20343E+02</wgt>
<wgt id='4023'>0.20334E+02</wgt>
<wgt id='4024'>0.21049E+02</wgt>
<wgt id='4025'>0.20147E+02</wgt>
<wgt id='4026'>0.21218E+02</wgt>
<wgt id='4027'>0.20442E+02</wgt>
<wgt id='4028'>0.21066E+02</wgt>
<wgt id='4029'>0.20194E+02</wgt>
<wgt id='4030'>0.20888E+02</wgt>
<wgt id='4031'>0.20845E+02</wgt>
<wgt id='4032'>0.20530E+02</wgt>
<wgt id='4033'>0.20585E+02</wgt>
<wgt id='4034'>0.20972E+02</wgt>
<wgt id='4035'>0.21617E+02</wgt>
<wgt id='4036'>0.19875E+02</wgt>
<wgt id='4037'>0.21274E+02</wgt>
<wgt id='4038'>0.19709E+02</wgt>
<wgt id='4039'>0.20730E+02</wgt>
<wgt id='4040'>0.20459E+02</wgt>
<wgt id='4041'>0.21065E+02</wgt>
<wgt id='4042'>0.20485E+02</wgt>
<wgt id='4043'>0.21168E+02</wgt>
<wgt id='4044'>0.20383E+02</wgt>
<wgt id='4045'>0.19581E+02</wgt>
<wgt id='4046'>0.20558E+02</wgt>
<wgt id='4047'>0.20134E+02</wgt>
<wgt id='4048'>0.20438E+02</wgt>
<wgt id='4049'>0.20243E+02</wgt>
<wgt id='4050'>0.19718E+02</wgt>
<wgt id='4051'>0.20418E+02</wgt>
<wgt id='4052'>0.20474E+02</wgt>
<wgt id='4053'>0.20124E+02</wgt>
<wgt id='4054'>0.20864E+02</wgt>
<wgt id='4055'>0.20400E+02</wgt>
<wgt id='4056'>0.20977E+02</wgt>
<wgt id='4060'>0.20550E+02</wgt>
<wgt id='4070'>0.20708E+02</wgt>
<wgt id='4080'>0.16586E+02</wgt>
<wgt id='6000'>0.21784E+02</wgt>
<wgt id='6001'>0.21779E+02</wgt>
<wgt id='6002'>0.21789E+02</wgt>
<wgt id='6003'>0.21785E+02</wgt>
<wgt id='6004'>0.21783E+02</wgt>
<wgt id='6005'>0.21823E+02</wgt>
<wgt id='6006'>0.21749E+02</wgt>
<wgt id='6007'>0.21578E+02</wgt>
<wgt id='6008'>0.22015E+02</wgt>
<wgt id='6009'>0.21915E+02</wgt>
<wgt id='6010'>0.21659E+02</wgt>
<wgt id='6011'>0.21888E+02</wgt>
<wgt id='6012'>0.21556E+02</wgt>
<wgt id='6013'>0.21730E+02</wgt>
<wgt id='6014'>0.21879E+02</wgt>
<wgt id='6015'>0.21599E+02</wgt>
<wgt id='6016'>0.21889E+02</wgt>
<wgt id='6017'>0.21533E+02</wgt>
<wgt id='6018'>0.22083E+02</wgt>
<wgt id='6019'>0.21908E+02</wgt>
<wgt id='6020'>0.21678E+02</wgt>
<wgt id='6021'>0.21672E+02</wgt>
<wgt id='6022'>0.21934E+02</wgt>
<wgt id='6023'>0.21468E+02</wgt>
<wgt id='6024'>0.22007E+02</wgt>
<wgt id='6025'>0.21126E+02</wgt>
<wgt id='6026'>0.22396E+02</wgt>
<wgt id='6027'>0.21940E+02</wgt>
<wgt id='6028'>0.21801E+02</wgt>
<wgt id='6029'>0.22157E+02</wgt>
<wgt id='6030'>0.21341E+02</wgt>
<wgt id='6031'>0.21986E+02</wgt>
<wgt id='6032'>0.21532E+02</wgt>
<wgt id='6033'>0.21843E+02</wgt>
<wgt id='6034'>0.21716E+02</wgt>
<wgt id='6035'>0.21737E+02</wgt>
<wgt id='6036'>0.22026E+02</wgt>
<wgt id='6037'>0.21855E+02</wgt>
<wgt id='6038'>0.21779E+02</wgt>
<wgt id='6039'>0.21765E+02</wgt>
<wgt id='6040'>0.21802E+02</wgt>
<wgt id='6041'>0.21806E+02</wgt>
<wgt id='6042'>0.21765E+02</wgt>
<wgt id='6043'>0.22276E+02</wgt>
<wgt id='6044'>0.21523E+02</wgt>
<wgt id='6045'>0.21789E+02</wgt>
<wgt id='6046'>0.21776E+02</wgt>
<wgt id='6047'>0.21932E+02</wgt>
<wgt id='6048'>0.21163E+02</wgt>
<wgt id='6049'>0.21860E+02</wgt>
<wgt id='6050'>0.21715E+02</wgt>
<wgt id='7000'>0.19787E+02</wgt>
<wgt id='7001'>0.19762E+02</wgt>
<wgt id='7002'>0.19820E+02</wgt>
<wgt id='7003'>0.19860E+02</wgt>
<wgt id='7004'>0.19714E+02</wgt>
<wgt id='7005'>0.19818E+02</wgt>
<wgt id='7006'>0.19776E+02</wgt>
<wgt id='7007'>0.19565E+02</wgt>
<wgt id='7008'>0.20009E+02</wgt>
<wgt id='7009'>0.19838E+02</wgt>
<wgt id='7010'>0.19737E+02</wgt>
<wgt id='7011'>0.19383E+02</wgt>
<wgt id='7012'>0.19965E+02</wgt>
<wgt id='7013'>0.19804E+02</wgt>
<wgt id='7014'>0.19768E+02</wgt>
<wgt id='7015'>0.19647E+02</wgt>
<wgt id='7016'>0.19940E+02</wgt>
<wgt id='7017'>0.19745E+02</wgt>
<wgt id='7018'>0.19809E+02</wgt>
<wgt id='7019'>0.19700E+02</wgt>
<wgt id='7020'>0.19906E+02</wgt>
<wgt id='7021'>0.19821E+02</wgt>
<wgt id='7022'>0.19763E+02</wgt>
<wgt id='7023'>0.20334E+02</wgt>
<wgt id='7024'>0.19264E+02</wgt>
<wgt id='7025'>0.19991E+02</wgt>
<wgt id='7026'>0.19294E+02</wgt>
<wgt id='7027'>0.20022E+02</wgt>
<wgt id='7028'>0.19719E+02</wgt>
<wgt id='7029'>0.19501E+02</wgt>
<wgt id='7030'>0.20518E+02</wgt>
<wgt id='7031'>0.19846E+02</wgt>
<wgt id='7032'>0.19687E+02</wgt>
<wgt id='7033'>0.19695E+02</wgt>
<wgt id='7034'>0.20006E+02</wgt>
<wgt id='7035'>0.20016E+02</wgt>
<wgt id='7036'>0.19721E+02</wgt>
<wgt id='7037'>0.19809E+02</wgt>
<wgt id='7038'>0.19803E+02</wgt>
<wgt id='7039'>0.19778E+02</wgt>
<wgt id='7040'>0.19790E+02</wgt>
<wgt id='7041'>0.19552E+02</wgt>
<wgt id='7042'>0.20073E+02</wgt>
<wgt id='7043'>0.19826E+02</wgt>
<wgt id='7044'>0.19571E+02</wgt>
<wgt id='7045'>0.19335E+02</wgt>
<wgt id='7046'>0.19969E+02</wgt>
<wgt id='7047'>0.19840E+02</wgt>
<wgt id='7048'>0.19750E+02</wgt>
<wgt id='7049'>0.19565E+02</wgt>
<wgt id='7050'>0.19831E+02</wgt>
<wgt id='7060'>0.27501E+02</wgt>
<wgt id='8000'>0.21364E+02</wgt>
<wgt id='8001'>0.21356E+02</wgt>
<wgt id='8002'>0.21372E+02</wgt>
<wgt id='8003'>0.21369E+02</wgt>
<wgt id='8004'>0.21363E+02</wgt>
<wgt id='8005'>0.21287E+02</wgt>
<wgt id='8006'>0.21323E+02</wgt>
<wgt id='8007'>0.21293E+02</wgt>
<wgt id='8008'>0.21441E+02</wgt>
<wgt id='8009'>0.21523E+02</wgt>
<wgt id='8010'>0.21362E+02</wgt>
<wgt id='8011'>0.21340E+02</wgt>
<wgt id='8012'>0.21317E+02</wgt>
<wgt id='8013'>0.21382E+02</wgt>
<wgt id='8014'>0.21331E+02</wgt>
<wgt id='8015'>0.21346E+02</wgt>
<wgt id='8016'>0.21370E+02</wgt>
<wgt id='8017'>0.21372E+02</wgt>
<wgt id='8018'>0.21337E+02</wgt>
<wgt id='8019'>0.21481E+02</wgt>
<wgt id='8020'>0.21142E+02</wgt>
<wgt id='8021'>0.21394E+02</wgt>
<wgt id='8022'>0.20959E+02</wgt>
<wgt id='8023'>0.21482E+02</wgt>
<wgt id='8024'>0.21550E+02</wgt>
<wgt id='8025'>0.21610E+02</wgt>
<wgt id='8026'>0.21469E+02</wgt>
<wgt id='8027'>0.21248E+02</wgt>
<wgt id='8028'>0.21427E+02</wgt>
<wgt id='8029'>0.20633E+02</wgt>
<wgt id='8500'>0.21184E+02</wgt>
<wgt id='8501'>0.21250E+02</wgt>
<wgt id='8502'>0.21593E+02</wgt>
<wgt id='8503'>0.21434E+02</wgt>
<wgt id='8504'>0.21129E+02</wgt>
<wgt id='8505'>0.20991E+02</wgt>
<wgt id='8506'>0.21131E+02</wgt>
<wgt id='8507'>0.21423E+02</wgt>
<wgt id='8508'>0.21769E+02</wgt>
<wgt id='8509'>0.20950E+02</wgt>
<wgt id='8510'>0.21942E+02</wgt>
<wgt id='8511'>0.21281E+02</wgt>
<wgt id='8512'>0.20576E+02</wgt>
<wgt id='8513'>0.21139E+02</wgt>
<wgt id='8514'>0.20795E+02</wgt>
<wgt id='8515'>0.21224E+02</wgt>
<wgt id='8516'>0.21315E+02</wgt>
<wgt id='8517'>0.20917E+02</wgt>
<wgt id='8518'>0.20977E+02</wgt>
<wgt id='8519'>0.20980E+02</wgt>
<wgt id='8520'>0.21479E+02</wgt>
<wgt id='8521'>0.21127E+02</wgt>
<wgt id='8522'>0.21008E+02</wgt>
<wgt id='8523'>0.21156E+02</wgt>
<wgt id='8524'>0.21231E+02</wgt>
<wgt id='8525'>0.21116E+02</wgt>
<wgt id='8526'>0.21117E+02</wgt>
<wgt id='8527'>0.21207E+02</wgt>
<wgt id='8528'>0.21057E+02</wgt>
<wgt id='8529'>0.21218E+02</wgt>
<wgt id='8530'>0.21140E+02</wgt>
<wgt id='8531'>0.21158E+02</wgt>
<wgt id='8532'>0.21197E+02</wgt>
<wgt id='8533'>0.21151E+02</wgt>
<wgt id='8534'>0.21218E+02</wgt>
<wgt id='8535'>0.21231E+02</wgt>
<wgt id='8536'>0.21170E+02</wgt>
<wgt id='8537'>0.21189E+02</wgt>
<wgt id='8538'>0.21139E+02</wgt>
<wgt id='8539'>0.21163E+02</wgt>
<wgt id='8540'>0.21183E+02</wgt>
<wgt id='8541'>0.21185E+02</wgt>
<wgt id='8542'>0.21208E+02</wgt>
<wgt id='8543'>0.21152E+02</wgt>
<wgt id='8544'>0.21189E+02</wgt>
<wgt id='8545'>0.21220E+02</wgt>
<wgt id='8546'>0.21166E+02</wgt>
<wgt id='8547'>0.21181E+02</wgt>
<wgt id='8548'>0.21140E+02</wgt>
<wgt id='8549'>0.21162E+02</wgt>
<wgt id='8550'>0.21228E+02</wgt>
<wgt id='8551'>0.21128E+02</wgt>
<wgt id='8552'>0.21218E+02</wgt>
<wgt id='8553'>0.21207E+02</wgt>
<wgt id='8554'>0.21158E+02</wgt>
<wgt id='8555'>0.21194E+02</wgt>
<wgt id='8556'>0.21189E+02</wgt>
<wgt id='8557'>0.21152E+02</wgt>
<wgt id='8558'>0.21199E+02</wgt>
<wgt id='8559'>0.21166E+02</wgt>
<wgt id='8560'>0.21164E+02</wgt>
<wgt id='8561'>0.21155E+02</wgt>
<wgt id='8562'>0.21181E+02</wgt>
<wgt id='8563'>0.21189E+02</wgt>
<wgt id='8564'>0.21187E+02</wgt>
<wgt id='8565'>0.21172E+02</wgt>
<wgt id='8566'>0.21168E+02</wgt>
<wgt id='8567'>0.21176E+02</wgt>
<wgt id='8568'>0.21175E+02</wgt>
<wgt id='8569'>0.21170E+02</wgt>
<wgt id='8570'>0.21179E+02</wgt>
<wgt id='8571'>0.21198E+02</wgt>
<wgt id='8572'>0.21217E+02</wgt>
<wgt id='8573'>0.21181E+02</wgt>
<wgt id='8574'>0.21192E+02</wgt>
<wgt id='8575'>0.21168E+02</wgt>
<wgt id='8576'>0.21199E+02</wgt>
<wgt id='8577'>0.21218E+02</wgt>
<wgt id='8578'>0.21188E+02</wgt>
<wgt id='8579'>0.21199E+02</wgt>
<wgt id='8580'>0.21207E+02</wgt>
<wgt id='8581'>0.21168E+02</wgt>
<wgt id='8582'>0.21179E+02</wgt>
<wgt id='8583'>0.21168E+02</wgt>
<wgt id='8584'>0.21166E+02</wgt>
<wgt id='8585'>0.21164E+02</wgt>
<wgt id='8586'>0.21169E+02</wgt>
<wgt id='8587'>0.21158E+02</wgt>
<wgt id='8588'>0.21174E+02</wgt>
<wgt id='8589'>0.21197E+02</wgt>
<wgt id='8590'>0.21181E+02</wgt>
<wgt id='8591'>0.21196E+02</wgt>
<wgt id='8592'>0.21191E+02</wgt>
<wgt id='8593'>0.21181E+02</wgt>
<wgt id='8594'>0.21189E+02</wgt>
<wgt id='8595'>0.21182E+02</wgt>
<wgt id='8596'>0.21188E+02</wgt>
<wgt id='8597'>0.21178E+02</wgt>
<wgt id='8598'>0.21176E+02</wgt>
<wgt id='8599'>0.21182E+02</wgt>
<wgt id='8600'>0.21188E+02</wgt>
<wgt id='8601'>0.21122E+02</wgt>
<wgt id='8602'>0.21112E+02</wgt>
<wgt id='9000'>0.19913E+02</wgt>
<wgt id='9001'>0.19860E+02</wgt>
<wgt id='9002'>0.20140E+02</wgt>
<wgt id='9003'>0.19504E+02</wgt>
<wgt id='9004'>0.19759E+02</wgt>
<wgt id='9005'>0.20022E+02</wgt>
<wgt id='9006'>0.19789E+02</wgt>
<wgt id='9007'>0.19963E+02</wgt>
<wgt id='9008'>0.20037E+02</wgt>
<wgt id='9009'>0.19843E+02</wgt>
<wgt id='9010'>0.19758E+02</wgt>
<wgt id='9011'>0.20418E+02</wgt>
<wgt id='9012'>0.19386E+02</wgt>
<wgt id='9013'>0.19171E+02</wgt>
<wgt id='9014'>0.19467E+02</wgt>
<wgt id='9015'>0.20002E+02</wgt>
<wgt id='9016'>0.20303E+02</wgt>
<wgt id='9017'>0.19808E+02</wgt>
<wgt id='9018'>0.19764E+02</wgt>
<wgt id='9019'>0.19812E+02</wgt>
<wgt id='9020'>0.20196E+02</wgt>
<wgt id='9021'>0.20207E+02</wgt>
<wgt id='9022'>0.19978E+02</wgt>
<wgt id='9023'>0.19984E+02</wgt>
<wgt id='9024'>0.19848E+02</wgt>
<wgt id='9025'>0.19976E+02</wgt>
<wgt id='9026'>0.19972E+02</wgt>
<wgt id='9027'>0.19859E+02</wgt>
<wgt id='9028'>0.19968E+02</wgt>
<wgt id='9029'>0.19925E+02</wgt>
<wgt id='9030'>0.19912E+02</wgt>
<wgt id='9031'>0.19953E+02</wgt>
<wgt id='9032'>0.19930E+02</wgt>
<wgt id='9033'>0.19957E+02</wgt>
<wgt id='9034'>0.19849E+02</wgt>
<wgt id='9035'>0.19990E+02</wgt>
<wgt id='9036'>0.19883E+02</wgt>
<wgt id='9037'>0.19957E+02</wgt>
<wgt id='9038'>0.19883E+02</wgt>
<wgt id='9039'>0.19922E+02</wgt>
<wgt id='9040'>0.19868E+02</wgt>
<wgt id='9041'>0.19863E+02</wgt>
<wgt id='9042'>0.19883E+02</wgt>
<wgt id='9043'>0.19907E+02</wgt>
<wgt id='9044'>0.19944E+02</wgt>
<wgt id='9045'>0.19873E+02</wgt>
<wgt id='9046'>0.19872E+02</wgt>
<wgt id='9047'>0.19853E+02</wgt>
<wgt id='9048'>0.19905E+02</wgt>
<wgt id='9049'>0.19891E+02</wgt>
<wgt id='9050'>0.19941E+02</wgt>
<wgt id='9051'>0.19913E+02</wgt>
<wgt id='9052'>0.19882E+02</wgt>
<wgt id='9053'>0.19915E+02</wgt>
<wgt id='9054'>0.19903E+02</wgt>
<wgt id='9055'>0.19939E+02</wgt>
<wgt id='9056'>0.19950E+02</wgt>
<wgt id='9057'>0.19911E+02</wgt>
<wgt id='9058'>0.19919E+02</wgt>
<wgt id='9059'>0.19916E+02</wgt>
<wgt id='9060'>0.19909E+02</wgt>
<wgt id='9061'>0.19928E+02</wgt>
<wgt id='9062'>0.19918E+02</wgt>
<wgt id='9063'>0.19939E+02</wgt>
<wgt id='9064'>0.19888E+02</wgt>
<wgt id='9065'>0.19930E+02</wgt>
<wgt id='9066'>0.19935E+02</wgt>
<wgt id='9067'>0.19907E+02</wgt>
<wgt id='9068'>0.19950E+02</wgt>
<wgt id='9069'>0.19885E+02</wgt>
<wgt id='9070'>0.19920E+02</wgt>
<wgt id='9071'>0.19913E+02</wgt>
<wgt id='9072'>0.19904E+02</wgt>
<wgt id='9073'>0.19905E+02</wgt>
<wgt id='9074'>0.19921E+02</wgt>
<wgt id='9075'>0.19918E+02</wgt>
<wgt id='9076'>0.19904E+02</wgt>
<wgt id='9077'>0.19908E+02</wgt>
<wgt id='9078'>0.19899E+02</wgt>
<wgt id='9079'>0.19891E+02</wgt>
<wgt id='9080'>0.19915E+02</wgt>
<wgt id='9081'>0.19881E+02</wgt>
<wgt id='9082'>0.19903E+02</wgt>
<wgt id='9083'>0.19901E+02</wgt>
<wgt id='9084'>0.19915E+02</wgt>
<wgt id='9085'>0.19927E+02</wgt>
<wgt id='9086'>0.19910E+02</wgt>
<wgt id='9087'>0.19920E+02</wgt>
<wgt id='9088'>0.19931E+02</wgt>
<wgt id='9089'>0.19922E+02</wgt>
<wgt id='9090'>0.19919E+02</wgt>
<wgt id='9091'>0.19909E+02</wgt>
<wgt id='9092'>0.19912E+02</wgt>
<wgt id='9093'>0.19913E+02</wgt>
<wgt id='9094'>0.19915E+02</wgt>
<wgt id='9095'>0.19906E+02</wgt>
<wgt id='9096'>0.19913E+02</wgt>
<wgt id='9097'>0.19910E+02</wgt>
<wgt id='9098'>0.19916E+02</wgt>
<wgt id='9099'>0.19908E+02</wgt>
<wgt id='9100'>0.19912E+02</wgt>
<wgt id='9101'>0.20065E+02</wgt>
<wgt id='9102'>0.19648E+02</wgt>
<wgt id='10000'>0.21181E+02</wgt>
<wgt id='10001'>0.21452E+02</wgt>
<wgt id='10002'>0.21267E+02</wgt>
<wgt id='10003'>0.21221E+02</wgt>
<wgt id='10004'>0.21214E+02</wgt>
<wgt id='10005'>0.22494E+02</wgt>
<wgt id='10006'>0.21261E+02</wgt>
<wgt id='10007'>0.21193E+02</wgt>
<wgt id='10008'>0.21352E+02</wgt>
<wgt id='10009'>0.21199E+02</wgt>
<wgt id='10010'>0.21249E+02</wgt>
<wgt id='10011'>0.21233E+02</wgt>
<wgt id='10012'>0.21138E+02</wgt>
<wgt id='10013'>0.21136E+02</wgt>
<wgt id='10014'>0.21171E+02</wgt>
<wgt id='10015'>0.21214E+02</wgt>
<wgt id='10016'>0.21147E+02</wgt>
<wgt id='10017'>0.20910E+02</wgt>
<wgt id='10018'>0.21193E+02</wgt>
<wgt id='10019'>0.21465E+02</wgt>
<wgt id='10020'>0.21136E+02</wgt>
<wgt id='10021'>0.21141E+02</wgt>
<wgt id='10022'>0.20924E+02</wgt>
<wgt id='10023'>0.21203E+02</wgt>
<wgt id='10024'>0.21217E+02</wgt>
<wgt id='10025'>0.21147E+02</wgt>
<wgt id='10026'>0.21241E+02</wgt>
<wgt id='10027'>0.21196E+02</wgt>
<wgt id='10028'>0.21438E+02</wgt>
<wgt id='10029'>0.21191E+02</wgt>
<wgt id='10030'>0.21217E+02</wgt>
<wgt id='10031'>0.21122E+02</wgt>
<wgt id='10032'>0.21112E+02</wgt>
<wgt id='11000'>0.19909E+02</wgt>
<wgt id='11001'>0.19798E+02</wgt>
<wgt id='11002'>0.20133E+02</wgt>
<wgt id='11003'>0.19852E+02</wgt>
<wgt id='11004'>0.20206E+02</wgt>
<wgt id='11005'>0.19099E+02</wgt>
<wgt id='11006'>0.19893E+02</wgt>
<wgt id='11007'>0.19790E+02</wgt>
<wgt id='11008'>0.19792E+02</wgt>
<wgt id='11009'>0.19718E+02</wgt>
<wgt id='11010'>0.20110E+02</wgt>
<wgt id='11011'>0.19692E+02</wgt>
<wgt id='11012'>0.19992E+02</wgt>
<wgt id='11013'>0.20045E+02</wgt>
<wgt id='11014'>0.19805E+02</wgt>
<wgt id='11015'>0.19932E+02</wgt>
<wgt id='11016'>0.19818E+02</wgt>
<wgt id='11017'>0.20256E+02</wgt>
<wgt id='11018'>0.19907E+02</wgt>
<wgt id='11019'>0.19887E+02</wgt>
<wgt id='11020'>0.19950E+02</wgt>
<wgt id='11021'>0.20007E+02</wgt>
<wgt id='11022'>0.20737E+02</wgt>
<wgt id='11023'>0.19879E+02</wgt>
<wgt id='11024'>0.19948E+02</wgt>
<wgt id='11025'>0.19887E+02</wgt>
<wgt id='11026'>0.19911E+02</wgt>
<wgt id='11027'>0.19824E+02</wgt>
<wgt id='11028'>0.19921E+02</wgt>
<wgt id='11029'>0.20280E+02</wgt>
<wgt id='11030'>0.19906E+02</wgt>
<wgt id='11031'>0.20065E+02</wgt>
<wgt id='11032'>0.19648E+02</wgt>
<wgt id='12000'>0.26414E+02</wgt>
<wgt id='12001'>0.26360E+02</wgt>
<wgt id='12002'>0.26468E+02</wgt>
<wgt id='12003'>0.26534E+02</wgt>
<wgt id='12004'>0.26293E+02</wgt>
<wgt id='12005'>0.26528E+02</wgt>
<wgt id='12006'>0.26300E+02</wgt>
<wgt id='12007'>0.26529E+02</wgt>
<wgt id='12008'>0.26302E+02</wgt>
<wgt id='12009'>0.26552E+02</wgt>
<wgt id='12010'>0.26276E+02</wgt>
<wgt id='12011'>0.26276E+02</wgt>
<wgt id='12012'>0.26557E+02</wgt>
<wgt id='12013'>0.26217E+02</wgt>
<wgt id='12014'>0.26613E+02</wgt>
<wgt id='12015'>0.26402E+02</wgt>
<wgt id='12016'>0.26366E+02</wgt>
<wgt id='12017'>0.26579E+02</wgt>
<wgt id='12018'>0.26235E+02</wgt>
<wgt id='12019'>0.26198E+02</wgt>
<wgt id='12020'>0.26619E+02</wgt>
<wgt id='12021'>0.26635E+02</wgt>
<wgt id='12022'>0.26123E+02</wgt>
<wgt id='12023'>0.26219E+02</wgt>
<wgt id='12024'>0.26285E+02</wgt>
<wgt id='12025'>0.26602E+02</wgt>
<wgt id='12026'>0.26305E+02</wgt>
<wgt id='12027'>0.26391E+02</wgt>
<wgt id='12028'>0.26468E+02</wgt>
<wgt id='12050'>0.26414E+02</wgt>
<wgt id='12051'>0.26191E+02</wgt>
<wgt id='12052'>0.26647E+02</wgt>
<wgt id='12053'>0.26151E+02</wgt>
<wgt id='12054'>0.26577E+02</wgt>
<wgt id='12055'>0.26750E+02</wgt>
<wgt id='12056'>0.25800E+02</wgt>
<wgt id='12057'>0.26235E+02</wgt>
<wgt id='12058'>0.26579E+02</wgt>
<wgt id='12059'>0.26237E+02</wgt>
<wgt id='12060'>0.26600E+02</wgt>
<wgt id='12061'>0.26338E+02</wgt>
<wgt id='12062'>0.26593E+02</wgt>
<wgt id='12063'>0.25480E+02</wgt>
<wgt id='13000'>0.21358E+02</wgt>
<wgt id='13001'>0.21339E+02</wgt>
<wgt id='13002'>0.21371E+02</wgt>
<wgt id='13003'>0.21406E+02</wgt>
<wgt id='13004'>0.21304E+02</wgt>
<wgt id='13005'>0.21486E+02</wgt>
<wgt id='13006'>0.21224E+02</wgt>
<wgt id='13007'>0.21506E+02</wgt>
<wgt id='13008'>0.21207E+02</wgt>
<wgt id='13009'>0.21378E+02</wgt>
<wgt id='13010'>0.21333E+02</wgt>
<wgt id='13011'>0.21522E+02</wgt>
<wgt id='13012'>0.21187E+02</wgt>
<wgt id='13013'>0.21214E+02</wgt>
<wgt id='13014'>0.21496E+02</wgt>
<wgt id='13015'>0.21268E+02</wgt>
<wgt id='13016'>0.21417E+02</wgt>
<wgt id='13017'>0.21356E+02</wgt>
<wgt id='13018'>0.21343E+02</wgt>
<wgt id='13019'>0.21231E+02</wgt>
<wgt id='13020'>0.21476E+02</wgt>
<wgt id='13021'>0.20806E+02</wgt>
<wgt id='13022'>0.21813E+02</wgt>
<wgt id='13023'>0.21538E+02</wgt>
<wgt id='13024'>0.21158E+02</wgt>
<wgt id='13025'>0.21409E+02</wgt>
<wgt id='13026'>0.21159E+02</wgt>
<wgt id='13027'>0.21512E+02</wgt>
<wgt id='13028'>0.21253E+02</wgt>
<wgt id='13050'>0.21358E+02</wgt>
<wgt id='13051'>0.21237E+02</wgt>
<wgt id='13052'>0.21448E+02</wgt>
<wgt id='13053'>0.21180E+02</wgt>
<wgt id='13054'>0.21424E+02</wgt>
<wgt id='13055'>0.21719E+02</wgt>
<wgt id='13056'>0.21003E+02</wgt>
<wgt id='13057'>0.21200E+02</wgt>
<wgt id='13058'>0.21577E+02</wgt>
<wgt id='13059'>0.21163E+02</wgt>
<wgt id='13060'>0.21918E+02</wgt>
<wgt id='13061'>0.21219E+02</wgt>
<wgt id='13062'>0.21769E+02</wgt>
<wgt id='13063'>0.20827E+02</wgt>
<wgt id='14000'>0.20679E+02</wgt>
<wgt id='14001'>0.20674E+02</wgt>
<wgt id='14002'>0.20669E+02</wgt>
<wgt id='14003'>0.20665E+02</wgt>
<wgt id='14004'>0.20660E+02</wgt>
<wgt id='14005'>0.20656E+02</wgt>
<wgt id='14006'>0.20651E+02</wgt>
<wgt id='14007'>0.20646E+02</wgt>
<wgt id='14008'>0.20641E+02</wgt>
<wgt id='14009'>0.20637E+02</wgt>
<wgt id='14010'>0.20632E+02</wgt>
<wgt id='14011'>0.20628E+02</wgt>
<wgt id='14012'>0.20623E+02</wgt>
<wgt id='14013'>0.20618E+02</wgt>
<wgt id='14014'>0.20614E+02</wgt>
<wgt id='14015'>0.20609E+02</wgt>
<wgt id='14016'>0.20604E+02</wgt>
<wgt id='14017'>0.20600E+02</wgt>
<wgt id='14018'>0.20595E+02</wgt>
<wgt id='14019'>0.20590E+02</wgt>
<wgt id='14020'>0.20586E+02</wgt>
<wgt id='14021'>0.20581E+02</wgt>
<wgt id='14022'>0.20576E+02</wgt>
<wgt id='14023'>0.20572E+02</wgt>
<wgt id='14024'>0.20567E+02</wgt>
<wgt id='14025'>0.20562E+02</wgt>
<wgt id='14026'>0.20558E+02</wgt>
<wgt id='14027'>0.20553E+02</wgt>
<wgt id='14028'>0.20548E+02</wgt>
<wgt id='14029'>0.20544E+02</wgt>
<wgt id='14030'>0.20539E+02</wgt>
<wgt id='15000'>0.19625E+02</wgt>
<wgt id='15001'>0.19572E+02</wgt>
<wgt id='15002'>0.19848E+02</wgt>
<wgt id='15003'>0.19224E+02</wgt>
<wgt id='15004'>0.19474E+02</wgt>
<wgt id='15005'>0.19734E+02</wgt>
<wgt id='15006'>0.19505E+02</wgt>
<wgt id='15007'>0.19676E+02</wgt>
<wgt id='15008'>0.19747E+02</wgt>
<wgt id='15009'>0.19557E+02</wgt>
<wgt id='15010'>0.19474E+02</wgt>
<wgt id='15011'>0.20126E+02</wgt>
<wgt id='15012'>0.19106E+02</wgt>
<wgt id='15013'>0.18896E+02</wgt>
<wgt id='15014'>0.19184E+02</wgt>
<wgt id='15015'>0.19708E+02</wgt>
<wgt id='15016'>0.20012E+02</wgt>
<wgt id='15017'>0.19522E+02</wgt>
<wgt id='15018'>0.19480E+02</wgt>
<wgt id='15019'>0.19528E+02</wgt>
<wgt id='15020'>0.19907E+02</wgt>
<wgt id='15021'>0.19912E+02</wgt>
<wgt id='15022'>0.19690E+02</wgt>
<wgt id='15023'>0.19694E+02</wgt>
<wgt id='15024'>0.19560E+02</wgt>
<wgt id='15025'>0.19689E+02</wgt>
<wgt id='15026'>0.19682E+02</wgt>
<wgt id='15027'>0.19574E+02</wgt>
<wgt id='15028'>0.19681E+02</wgt>
<wgt id='15029'>0.19637E+02</wgt>
<wgt id='15030'>0.19624E+02</wgt>
<wgt id='15031'>0.19667E+02</wgt>
<wgt id='15032'>0.19642E+02</wgt>
<wgt id='15033'>0.19669E+02</wgt>
<wgt id='15034'>0.19563E+02</wgt>
<wgt id='15035'>0.19702E+02</wgt>
<wgt id='15036'>0.19597E+02</wgt>
<wgt id='15037'>0.19670E+02</wgt>
<wgt id='15038'>0.19596E+02</wgt>
<wgt id='15039'>0.19634E+02</wgt>
<wgt id='15040'>0.19581E+02</wgt>
<wgt id='15041'>0.19575E+02</wgt>
<wgt id='15042'>0.19595E+02</wgt>
<wgt id='15043'>0.19620E+02</wgt>
<wgt id='15044'>0.19657E+02</wgt>
<wgt id='15045'>0.19585E+02</wgt>
<wgt id='15046'>0.19585E+02</wgt>
<wgt id='15047'>0.19566E+02</wgt>
<wgt id='15048'>0.19618E+02</wgt>
<wgt id='15049'>0.19603E+02</wgt>
<wgt id='15050'>0.19654E+02</wgt>
<wgt id='15051'>0.19626E+02</wgt>
<wgt id='15052'>0.19595E+02</wgt>
<wgt id='15053'>0.19628E+02</wgt>
<wgt id='15054'>0.19616E+02</wgt>
<wgt id='15055'>0.19652E+02</wgt>
<wgt id='15056'>0.19662E+02</wgt>
<wgt id='15057'>0.19623E+02</wgt>
<wgt id='15058'>0.19632E+02</wgt>
<wgt id='15059'>0.19629E+02</wgt>
<wgt id='15060'>0.19622E+02</wgt>
<wgt id='15061'>0.19640E+02</wgt>
<wgt id='15062'>0.19630E+02</wgt>
<wgt id='15063'>0.19652E+02</wgt>
<wgt id='15064'>0.19601E+02</wgt>
<wgt id='15065'>0.19642E+02</wgt>
<wgt id='15066'>0.19648E+02</wgt>
<wgt id='15067'>0.19620E+02</wgt>
<wgt id='15068'>0.19663E+02</wgt>
<wgt id='15069'>0.19598E+02</wgt>
<wgt id='15070'>0.19633E+02</wgt>
<wgt id='15071'>0.19627E+02</wgt>
<wgt id='15072'>0.19617E+02</wgt>
<wgt id='15073'>0.19617E+02</wgt>
<wgt id='15074'>0.19634E+02</wgt>
<wgt id='15075'>0.19630E+02</wgt>
<wgt id='15076'>0.19618E+02</wgt>
<wgt id='15077'>0.19621E+02</wgt>
<wgt id='15078'>0.19612E+02</wgt>
<wgt id='15079'>0.19604E+02</wgt>
<wgt id='15080'>0.19627E+02</wgt>
<wgt id='15081'>0.19594E+02</wgt>
<wgt id='15082'>0.19616E+02</wgt>
<wgt id='15083'>0.19614E+02</wgt>
<wgt id='15084'>0.19628E+02</wgt>
<wgt id='15085'>0.19640E+02</wgt>
<wgt id='15086'>0.19623E+02</wgt>
<wgt id='15087'>0.19632E+02</wgt>
<wgt id='15088'>0.19643E+02</wgt>
<wgt id='15089'>0.19634E+02</wgt>
<wgt id='15090'>0.19631E+02</wgt>
<wgt id='15091'>0.19622E+02</wgt>
<wgt id='15092'>0.19625E+02</wgt>
<wgt id='15093'>0.19626E+02</wgt>
<wgt id='15094'>0.19628E+02</wgt>
<wgt id='15095'>0.19619E+02</wgt>
<wgt id='15096'>0.19626E+02</wgt>
<wgt id='15097'>0.19623E+02</wgt>
<wgt id='15098'>0.19629E+02</wgt>
<wgt id='15099'>0.19621E+02</wgt>
<wgt id='15100'>0.19624E+02</wgt>
<wgt id='15101'>0.19625E+02</wgt>
<wgt id='15102'>0.19623E+02</wgt>
<wgt id='15103'>0.19626E+02</wgt>
<wgt id='15104'>0.19626E+02</wgt>
<wgt id='15105'>0.19626E+02</wgt>
<wgt id='15106'>0.19625E+02</wgt>
<wgt id='15107'>0.19624E+02</wgt>
<wgt id='1500'>0.21039E+02</wgt>
<wgt id='1501'>0.18467E+02</wgt>
<wgt id='1502'>0.21193E+02</wgt>
<wgt id='1503'>0.21570E+02</wgt>
<wgt id='1504'>0.20695E+02</wgt>
<wgt id='1505'>0.16726E+02</wgt>
<wgt id='1506'>0.21264E+02</wgt>
<wgt id='1507'>0.21782E+02</wgt>
<wgt id='1508'>0.20745E+02</wgt>
<wgt id='1509'>0.21498E+02</wgt>
<wgt id='1510'>0.19948E+02</wgt>
<wgt id='1511'>0.19499E+02</wgt>
<wgt id='1512'>0.21603E+02</wgt>
<wgt id='1513'>0.20778E+02</wgt>
<wgt id='1514'>0.19227E+02</wgt>
<wgt id='1515'>0.20667E+02</wgt>
<wgt id='1516'>0.21818E+02</wgt>
<wgt id='1517'>0.19750E+02</wgt>
<wgt id='1518'>0.20672E+02</wgt>
<wgt id='1519'>0.21748E+02</wgt>
<wgt id='1520'>0.22510E+02</wgt>
<wgt id='1521'>0.20993E+02</wgt>
<wgt id='1522'>0.21361E+02</wgt>
<wgt id='1523'>0.24180E+02</wgt>
<wgt id='1524'>0.21657E+02</wgt>
<wgt id='1525'>0.21351E+02</wgt>
<wgt id='1526'>0.20849E+02</wgt>
<wgt id='1527'>0.19636E+02</wgt>
<wgt id='1528'>0.20347E+02</wgt>
<wgt id='1529'>0.20922E+02</wgt>
<wgt id='1530'>0.22744E+02</wgt>
<wgt id='1531'>0.21130E+02</wgt>
<wgt id='1532'>0.19709E+02</wgt>
<wgt id='1533'>0.21797E+02</wgt>
<wgt id='1534'>0.22185E+02</wgt>
<wgt id='1535'>0.21531E+02</wgt>
<wgt id='1536'>0.22210E+02</wgt>
<wgt id='1537'>0.21114E+02</wgt>
<wgt id='1538'>0.20947E+02</wgt>
<wgt id='1539'>0.19613E+02</wgt>
<wgt id='1540'>0.21833E+02</wgt>
<wgt id='1541'>0.21002E+02</wgt>
<wgt id='1542'>0.21638E+02</wgt>
<wgt id='1543'>0.22205E+02</wgt>
<wgt id='1544'>0.21705E+02</wgt>
<wgt id='1545'>0.22090E+02</wgt>
<wgt id='1546'>0.22011E+02</wgt>
<wgt id='1547'>0.20282E+02</wgt>
<wgt id='1548'>0.20272E+02</wgt>
<wgt id='1549'>0.21058E+02</wgt>
<wgt id='1550'>0.21050E+02</wgt>
<wgt id='1551'>0.21476E+02</wgt>
<wgt id='1552'>0.21119E+02</wgt>
<wgt id='1553'>0.22939E+02</wgt>
<wgt id='1554'>0.20038E+02</wgt>
<wgt id='1555'>0.20977E+02</wgt>
<wgt id='1556'>0.19749E+02</wgt>
<wgt id='1557'>0.22106E+02</wgt>
<wgt id='1558'>0.20630E+02</wgt>
<wgt id='1559'>0.22009E+02</wgt>
<wgt id='1560'>0.20962E+02</wgt>
<wgt id='1561'>0.21490E+02</wgt>
<wgt id='1562'>0.21943E+02</wgt>
<wgt id='1563'>0.21261E+02</wgt>
<wgt id='1564'>0.20214E+02</wgt>
<wgt id='1565'>0.21442E+02</wgt>
<wgt id='1566'>0.21530E+02</wgt>
<wgt id='1567'>0.22929E+02</wgt>
<wgt id='1568'>0.20153E+02</wgt>
<wgt id='1569'>0.19283E+02</wgt>
<wgt id='1570'>0.20835E+02</wgt>
<wgt id='1571'>0.22363E+02</wgt>
<wgt id='1572'>0.20980E+02</wgt>
<wgt id='1573'>0.17513E+02</wgt>
<wgt id='1574'>0.21556E+02</wgt>
<wgt id='1575'>0.20305E+02</wgt>
<wgt id='1576'>0.20733E+02</wgt>
<wgt id='1577'>0.21392E+02</wgt>
<wgt id='1578'>0.21534E+02</wgt>
<wgt id='1579'>0.20789E+02</wgt>
<wgt id='1580'>0.21050E+02</wgt>
<wgt id='1581'>0.21360E+02</wgt>
<wgt id='1582'>0.20186E+02</wgt>
<wgt id='1583'>0.21929E+02</wgt>
<wgt id='1584'>0.20967E+02</wgt>
<wgt id='1585'>0.20057E+02</wgt>
<wgt id='1586'>0.20512E+02</wgt>
<wgt id='1587'>0.21047E+02</wgt>
<wgt id='1588'>0.20763E+02</wgt>
<wgt id='1589'>0.21829E+02</wgt>
<wgt id='1590'>0.20989E+02</wgt>
<wgt id='1591'>0.19836E+02</wgt>
<wgt id='1592'>0.22115E+02</wgt>
<wgt id='1593'>0.20488E+02</wgt>
<wgt id='1594'>0.22051E+02</wgt>
<wgt id='1595'>0.19463E+02</wgt>
<wgt id='1596'>0.21808E+02</wgt>
<wgt id='1597'>0.21406E+02</wgt>
<wgt id='1598'>0.23061E+02</wgt>
<wgt id='1599'>0.21525E+02</wgt>
<wgt id='1600'>0.20611E+02</wgt>
<wgt id='1601'>0.20958E+02</wgt>
<wgt id='1602'>0.20850E+02</wgt>
<wgt id='1700'>0.20554E+02</wgt>
<wgt id='1800'>0.27231E+02</wgt>
<wgt id='1850'>0.30492E+02</wgt>
<wgt id='1900'>0.26278E+02</wgt>
<wgt id='1950'>0.28717E+02</wgt>
</rwgt>
</event>
<event>
      4   9999  2.16956E+01  1.12267E+01 -1.00000E+00  1.86315E-01
      21    -1     0     0   502   511  0.000000000E+00  0.000000000E+00  3.381689954E+02  3.381689954E+02  0.000000000E+00  0.00000E+00  9.000E+00
      21    -1     0     0   501   502  0.000000000E+00  0.000000000E+00 -1.385543146E+01  1.385543146E+01  0.000000000E+00  0.00000E+00  9.000E+00
      25     1     1     2     0     0 -1.105475297E+01  1.957319390E+00  2.925119388E+02  3.182993320E+02  1.250007670E+02  0.00000E+00  9.000E+00
      21     1     1     2   501   511  1.105475297E+01 -1.957319390E+00  3.180162510E+01  3.372509483E+01  6.743495762E-07  0.00000E+00  9.000E+00
#rwgt            1           1   15.348408125291781                1        5240           0
<rwgt>
<wgt id='1001'>0.21696E+02</wgt>
<wgt id='1002'>0.21729E+02</wgt>
<wgt id='1003'>0.21456E+02</wgt>
<wgt id='1004'>0.20026E+02</wgt>
<wgt id='1005'>0.20180E+02</wgt>
<wgt id='1006'>0.19653E+02</wgt>
<wgt id='1007'>0.23026E+02</wgt>
<wgt id='1008'>0.22840E+02</wgt>
<wgt id='1009'>0.23047E+02</wgt>
<wgt id='2000'>0.21696E+02</wgt>
<wgt id='2001'>0.21660E+02</wgt>
<wgt id='2002'>0.21731E+02</wgt>
<wgt id='2003'>0.21707E+02</wgt>
<wgt id='2004'>0.21706E+02</wgt>
<wgt id='2005'>0.21699E+02</wgt>
<wgt id='2006'>0.21689E+02</wgt>
<wgt id='2007'>0.21708E+02</wgt>
<wgt id='2008'>0.21750E+02</wgt>
<wgt id='2009'>0.21664E+02</wgt>
<wgt id='2010'>0.21659E+02</wgt>
<wgt id='2011'>0.21734E+02</wgt>
<wgt id='2012'>0.21725E+02</wgt>
<wgt id='2013'>0.21689E+02</wgt>
<wgt id='2014'>0.21710E+02</wgt>
<wgt id='2015'>0.21718E+02</wgt>
<wgt id='2016'>0.21730E+02</wgt>
<wgt id='2017'>0.21690E+02</wgt>
<wgt id='2018'>0.21698E+02</wgt>
<wgt id='2019'>0.21699E+02</wgt>
<wgt id='2020'>0.21749E+02</wgt>
<wgt id='2021'>0.21674E+02</wgt>
<wgt id='2022'>0.21758E+02</wgt>
<wgt id='2023'>0.21735E+02</wgt>
<wgt id='2024'>0.21676E+02</wgt>
<wgt id='2025'>0.21780E+02</wgt>
<wgt id='2026'>0.21770E+02</wgt>
<wgt id='2027'>0.21671E+02</wgt>
<wgt id='2028'>0.21645E+02</wgt>
<wgt id='2029'>0.21736E+02</wgt>
<wgt id='2030'>0.21695E+02</wgt>
<wgt id='2031'>0.21724E+02</wgt>
<wgt id='2032'>0.21662E+02</wgt>
<wgt id='2033'>0.21693E+02</wgt>
<wgt id='2034'>0.21749E+02</wgt>
<wgt id='2035'>0.21694E+02</wgt>
<wgt id='2036'>0.21715E+02</wgt>
<wgt id='2037'>0.21721E+02</wgt>
<wgt id='2038'>0.21691E+02</wgt>
<wgt id='2039'>0.21657E+02</wgt>
<wgt id='2040'>0.21708E+02</wgt>
<wgt id='2041'>0.21711E+02</wgt>
<wgt id='2042'>0.21693E+02</wgt>
<wgt id='2043'>0.21688E+02</wgt>
<wgt id='2044'>0.21711E+02</wgt>
<wgt id='2045'>0.21688E+02</wgt>
<wgt id='2046'>0.21701E+02</wgt>
<wgt id='2047'>0.21713E+02</wgt>
<wgt id='2048'>0.21686E+02</wgt>
<wgt id='2049'>0.21690E+02</wgt>
<wgt id='2050'>0.21694E+02</wgt>
<wgt id='2051'>0.21723E+02</wgt>
<wgt id='2052'>0.21705E+02</wgt>
<wgt id='2053'>0.21703E+02</wgt>
<wgt id='2054'>0.21696E+02</wgt>
<wgt id='2055'>0.21691E+02</wgt>
<wgt id='2056'>0.21696E+02</wgt>
<wgt id='2057'>0.21712E+02</wgt>
<wgt id='2058'>0.21702E+02</wgt>
<wgt id='2059'>0.21692E+02</wgt>
<wgt id='2060'>0.21696E+02</wgt>
<wgt id='2061'>0.21684E+02</wgt>
<wgt id='2062'>0.21694E+02</wgt>
<wgt id='2063'>0.21700E+02</wgt>
<wgt id='2064'>0.21688E+02</wgt>
<wgt id='2065'>0.21705E+02</wgt>
<wgt id='2066'>0.21691E+02</wgt>
<wgt id='2067'>0.21695E+02</wgt>
<wgt id='2068'>0.21699E+02</wgt>
<wgt id='2069'>0.21697E+02</wgt>
<wgt id='2070'>0.21692E+02</wgt>
<wgt id='2071'>0.21692E+02</wgt>
<wgt id='2072'>0.21698E+02</wgt>
<wgt id='2073'>0.21698E+02</wgt>
<wgt id='2074'>0.21699E+02</wgt>
<wgt id='2075'>0.21693E+02</wgt>
<wgt id='2076'>0.21696E+02</wgt>
<wgt id='2077'>0.21694E+02</wgt>
<wgt id='2078'>0.21694E+02</wgt>
<wgt id='2079'>0.21696E+02</wgt>
<wgt id='2080'>0.21698E+02</wgt>
<wgt id='2081'>0.21697E+02</wgt>
<wgt id='2082'>0.21697E+02</wgt>
<wgt id='2083'>0.21697E+02</wgt>
<wgt id='2084'>0.21698E+02</wgt>
<wgt id='2085'>0.21698E+02</wgt>
<wgt id='2086'>0.21691E+02</wgt>
<wgt id='2087'>0.21693E+02</wgt>
<wgt id='2088'>0.21698E+02</wgt>
<wgt id='2089'>0.21692E+02</wgt>
<wgt id='2090'>0.21695E+02</wgt>
<wgt id='2091'>0.21696E+02</wgt>
<wgt id='2092'>0.21695E+02</wgt>
<wgt id='2093'>0.21695E+02</wgt>
<wgt id='2094'>0.21697E+02</wgt>
<wgt id='2095'>0.21699E+02</wgt>
<wgt id='2096'>0.21695E+02</wgt>
<wgt id='2097'>0.21697E+02</wgt>
<wgt id='2098'>0.21695E+02</wgt>
<wgt id='2099'>0.21694E+02</wgt>
<wgt id='2100'>0.21697E+02</wgt>
<wgt id='2101'>0.21218E+02</wgt>
<wgt id='2102'>0.22142E+02</wgt>
<wgt id='2104'>0.19488E+02</wgt>
<wgt id='2105'>0.19897E+02</wgt>
<wgt id='2106'>0.20331E+02</wgt>
<wgt id='2107'>0.20773E+02</wgt>
<wgt id='2108'>0.21470E+02</wgt>
<wgt id='2109'>0.21923E+02</wgt>
<wgt id='2110'>0.22528E+02</wgt>
<wgt id='2111'>0.22955E+02</wgt>
<wgt id='3000'>0.22641E+02</wgt>
<wgt id='3001'>0.22671E+02</wgt>
<wgt id='3002'>0.22601E+02</wgt>
<wgt id='3003'>0.22653E+02</wgt>
<wgt id='3004'>0.22664E+02</wgt>
<wgt id='3005'>0.22641E+02</wgt>
<wgt id='3006'>0.22636E+02</wgt>
<wgt id='3007'>0.22598E+02</wgt>
<wgt id='3008'>0.22628E+02</wgt>
<wgt id='3009'>0.22545E+02</wgt>
<wgt id='3010'>0.22619E+02</wgt>
<wgt id='3011'>0.22671E+02</wgt>
<wgt id='3012'>0.22677E+02</wgt>
<wgt id='3013'>0.22623E+02</wgt>
<wgt id='3014'>0.22634E+02</wgt>
<wgt id='3015'>0.22631E+02</wgt>
<wgt id='3016'>0.22647E+02</wgt>
<wgt id='3017'>0.22632E+02</wgt>
<wgt id='3018'>0.22677E+02</wgt>
<wgt id='3019'>0.22643E+02</wgt>
<wgt id='3020'>0.22593E+02</wgt>
<wgt id='3021'>0.22593E+02</wgt>
<wgt id='3022'>0.22640E+02</wgt>
<wgt id='3023'>0.22600E+02</wgt>
<wgt id='3024'>0.22572E+02</wgt>
<wgt id='3025'>0.22649E+02</wgt>
<wgt id='3026'>0.22692E+02</wgt>
<wgt id='3027'>0.22642E+02</wgt>
<wgt id='3028'>0.22553E+02</wgt>
<wgt id='3029'>0.22596E+02</wgt>
<wgt id='3030'>0.22693E+02</wgt>
<wgt id='3031'>0.22669E+02</wgt>
<wgt id='3032'>0.22684E+02</wgt>
<wgt id='3033'>0.22701E+02</wgt>
<wgt id='3034'>0.22660E+02</wgt>
<wgt id='3035'>0.22707E+02</wgt>
<wgt id='3036'>0.22651E+02</wgt>
<wgt id='3037'>0.22631E+02</wgt>
<wgt id='3038'>0.22644E+02</wgt>
<wgt id='3039'>0.22606E+02</wgt>
<wgt id='3040'>0.22630E+02</wgt>
<wgt id='3041'>0.22666E+02</wgt>
<wgt id='3042'>0.22630E+02</wgt>
<wgt id='3043'>0.22631E+02</wgt>
<wgt id='3044'>0.22631E+02</wgt>
<wgt id='3045'>0.22651E+02</wgt>
<wgt id='3046'>0.22657E+02</wgt>
<wgt id='3047'>0.22645E+02</wgt>
<wgt id='3048'>0.22645E+02</wgt>
<wgt id='3049'>0.22642E+02</wgt>
<wgt id='3050'>0.22640E+02</wgt>
<wgt id='3051'>0.22652E+02</wgt>
<wgt id='3052'>0.22628E+02</wgt>
<wgt id='3053'>0.22636E+02</wgt>
<wgt id='3054'>0.22641E+02</wgt>
<wgt id='3055'>0.22609E+02</wgt>
<wgt id='3056'>0.22643E+02</wgt>
<wgt id='3057'>0.22632E+02</wgt>
<wgt id='3058'>0.22628E+02</wgt>
<wgt id='3059'>0.22641E+02</wgt>
<wgt id='3060'>0.22646E+02</wgt>
<wgt id='3061'>0.22640E+02</wgt>
<wgt id='3062'>0.22646E+02</wgt>
<wgt id='3063'>0.22653E+02</wgt>
<wgt id='3064'>0.22634E+02</wgt>
<wgt id='3065'>0.22641E+02</wgt>
<wgt id='3066'>0.22645E+02</wgt>
<wgt id='3067'>0.22633E+02</wgt>
<wgt id='3068'>0.22646E+02</wgt>
<wgt id='3069'>0.22639E+02</wgt>
<wgt id='3070'>0.22647E+02</wgt>
<wgt id='3071'>0.22638E+02</wgt>
<wgt id='3072'>0.22640E+02</wgt>
<wgt id='3073'>0.22633E+02</wgt>
<wgt id='3074'>0.22645E+02</wgt>
<wgt id='3075'>0.22638E+02</wgt>
<wgt id='3076'>0.22640E+02</wgt>
<wgt id='3077'>0.22645E+02</wgt>
<wgt id='3078'>0.22642E+02</wgt>
<wgt id='3079'>0.22642E+02</wgt>
<wgt id='3080'>0.22640E+02</wgt>
<wgt id='3081'>0.22642E+02</wgt>
<wgt id='3082'>0.22639E+02</wgt>
<wgt id='3083'>0.22641E+02</wgt>
<wgt id='3084'>0.22639E+02</wgt>
<wgt id='3085'>0.22643E+02</wgt>
<wgt id='3086'>0.22638E+02</wgt>
<wgt id='3087'>0.22639E+02</wgt>
<wgt id='3088'>0.22641E+02</wgt>
<wgt id='3089'>0.22640E+02</wgt>
<wgt id='3090'>0.22644E+02</wgt>
<wgt id='3091'>0.22643E+02</wgt>
<wgt id='3092'>0.22642E+02</wgt>
<wgt id='3093'>0.22641E+02</wgt>
<wgt id='3094'>0.22644E+02</wgt>
<wgt id='3095'>0.22641E+02</wgt>
<wgt id='3096'>0.22640E+02</wgt>
<wgt id='3097'>0.22638E+02</wgt>
<wgt id='3098'>0.22640E+02</wgt>
<wgt id='3099'>0.22642E+02</wgt>
<wgt id='3100'>0.22642E+02</wgt>
<wgt id='3101'>0.22118E+02</wgt>
<wgt id='3102'>0.23175E+02</wgt>
<wgt id='5000'>0.20957E+02</wgt>
<wgt id='5001'>0.20930E+02</wgt>
<wgt id='5002'>0.20902E+02</wgt>
<wgt id='5003'>0.20919E+02</wgt>
<wgt id='5004'>0.20902E+02</wgt>
<wgt id='5005'>0.20793E+02</wgt>
<wgt id='5006'>0.20828E+02</wgt>
<wgt id='5007'>0.20859E+02</wgt>
<wgt id='5008'>0.20935E+02</wgt>
<wgt id='5009'>0.21029E+02</wgt>
<wgt id='5010'>0.20908E+02</wgt>
<wgt id='5011'>0.20963E+02</wgt>
<wgt id='5012'>0.20913E+02</wgt>
<wgt id='5013'>0.20716E+02</wgt>
<wgt id='5014'>0.21056E+02</wgt>
<wgt id='5015'>0.21059E+02</wgt>
<wgt id='5016'>0.20627E+02</wgt>
<wgt id='5017'>0.20913E+02</wgt>
<wgt id='5018'>0.21006E+02</wgt>
<wgt id='5019'>0.20910E+02</wgt>
<wgt id='5020'>0.21010E+02</wgt>
<wgt id='5021'>0.20994E+02</wgt>
<wgt id='5022'>0.20932E+02</wgt>
<wgt id='5023'>0.20864E+02</wgt>
<wgt id='5024'>0.21054E+02</wgt>
<wgt id='5025'>0.20951E+02</wgt>
<wgt id='5026'>0.20962E+02</wgt>
<wgt id='5027'>0.21135E+02</wgt>
<wgt id='5028'>0.20654E+02</wgt>
<wgt id='5029'>0.20636E+02</wgt>
<wgt id='5030'>0.21148E+02</wgt>
<wgt id='5031'>0.20765E+02</wgt>
<wgt id='5032'>0.21231E+02</wgt>
<wgt id='5033'>0.20849E+02</wgt>
<wgt id='5034'>0.21048E+02</wgt>
<wgt id='5035'>0.20732E+02</wgt>
<wgt id='5036'>0.21145E+02</wgt>
<wgt id='5037'>0.20799E+02</wgt>
<wgt id='5038'>0.21128E+02</wgt>
<wgt id='5039'>0.21317E+02</wgt>
<wgt id='5040'>0.20774E+02</wgt>
<wgt id='5041'>0.20867E+02</wgt>
<wgt id='5042'>0.20949E+02</wgt>
<wgt id='5043'>0.21056E+02</wgt>
<wgt id='5044'>0.20590E+02</wgt>
<wgt id='5045'>0.21217E+02</wgt>
<wgt id='5046'>0.20870E+02</wgt>
<wgt id='5047'>0.20946E+02</wgt>
<wgt id='5048'>0.21133E+02</wgt>
<wgt id='5049'>0.20958E+02</wgt>
<wgt id='5050'>0.21000E+02</wgt>
<wgt id='5051'>0.20988E+02</wgt>
<wgt id='5052'>0.20953E+02</wgt>
<wgt id='5053'>0.20487E+02</wgt>
<wgt id='5054'>0.20777E+02</wgt>
<wgt id='5055'>0.20812E+02</wgt>
<wgt id='5056'>0.21177E+02</wgt>
<wgt id='5060'>0.20430E+02</wgt>
<wgt id='5070'>0.21464E+02</wgt>
<wgt id='4000'>0.21970E+02</wgt>
<wgt id='4001'>0.21978E+02</wgt>
<wgt id='4002'>0.22019E+02</wgt>
<wgt id='4003'>0.21942E+02</wgt>
<wgt id='4004'>0.21955E+02</wgt>
<wgt id='4005'>0.22034E+02</wgt>
<wgt id='4006'>0.21926E+02</wgt>
<wgt id='4007'>0.22014E+02</wgt>
<wgt id='4008'>0.21987E+02</wgt>
<wgt id='4009'>0.21694E+02</wgt>
<wgt id='4010'>0.22075E+02</wgt>
<wgt id='4011'>0.22223E+02</wgt>
<wgt id='4012'>0.21818E+02</wgt>
<wgt id='4013'>0.21360E+02</wgt>
<wgt id='4014'>0.22314E+02</wgt>
<wgt id='4015'>0.22238E+02</wgt>
<wgt id='4016'>0.21797E+02</wgt>
<wgt id='4017'>0.21697E+02</wgt>
<wgt id='4018'>0.22293E+02</wgt>
<wgt id='4019'>0.22183E+02</wgt>
<wgt id='4020'>0.21729E+02</wgt>
<wgt id='4021'>0.21996E+02</wgt>
<wgt id='4022'>0.21904E+02</wgt>
<wgt id='4023'>0.21910E+02</wgt>
<wgt id='4024'>0.22017E+02</wgt>
<wgt id='4025'>0.21853E+02</wgt>
<wgt id='4026'>0.22071E+02</wgt>
<wgt id='4027'>0.21928E+02</wgt>
<wgt id='4028'>0.22023E+02</wgt>
<wgt id='4029'>0.21852E+02</wgt>
<wgt id='4030'>0.22010E+02</wgt>
<wgt id='4031'>0.22008E+02</wgt>
<wgt id='4032'>0.21919E+02</wgt>
<wgt id='4033'>0.21930E+02</wgt>
<wgt id='4034'>0.22055E+02</wgt>
<wgt id='4035'>0.22135E+02</wgt>
<wgt id='4036'>0.21813E+02</wgt>
<wgt id='4037'>0.22065E+02</wgt>
<wgt id='4038'>0.21794E+02</wgt>
<wgt id='4039'>0.21930E+02</wgt>
<wgt id='4040'>0.21974E+02</wgt>
<wgt id='4041'>0.22062E+02</wgt>
<wgt id='4042'>0.21892E+02</wgt>
<wgt id='4043'>0.22012E+02</wgt>
<wgt id='4044'>0.21975E+02</wgt>
<wgt id='4045'>0.21688E+02</wgt>
<wgt id='4046'>0.21973E+02</wgt>
<wgt id='4047'>0.21907E+02</wgt>
<wgt id='4048'>0.21812E+02</wgt>
<wgt id='4049'>0.21743E+02</wgt>
<wgt id='4050'>0.21898E+02</wgt>
<wgt id='4051'>0.21925E+02</wgt>
<wgt id='4052'>0.21951E+02</wgt>
<wgt id='4053'>0.21308E+02</wgt>
<wgt id='4054'>0.21974E+02</wgt>
<wgt id='4055'>0.21850E+02</wgt>
<wgt id='4056'>0.22159E+02</wgt>
<wgt id='4060'>0.21367E+02</wgt>
<wgt id='4070'>0.22558E+02</wgt>
<wgt id='4080'>0.22920E+02</wgt>
<wgt id='6000'>0.22330E+02</wgt>
<wgt id='6001'>0.22355E+02</wgt>
<wgt id='6002'>0.22303E+02</wgt>
<wgt id='6003'>0.22342E+02</wgt>
<wgt id='6004'>0.22322E+02</wgt>
<wgt id='6005'>0.22364E+02</wgt>
<wgt id='6006'>0.22298E+02</wgt>
<wgt id='6007'>0.22252E+02</wgt>
<wgt id='6008'>0.22416E+02</wgt>
<wgt id='6009'>0.22424E+02</wgt>
<wgt id='6010'>0.22239E+02</wgt>
<wgt id='6011'>0.22382E+02</wgt>
<wgt id='6012'>0.22219E+02</wgt>
<wgt id='6013'>0.22303E+02</wgt>
<wgt id='6014'>0.22379E+02</wgt>
<wgt id='6015'>0.22266E+02</wgt>
<wgt id='6016'>0.22366E+02</wgt>
<wgt id='6017'>0.22193E+02</wgt>
<wgt id='6018'>0.22492E+02</wgt>
<wgt id='6019'>0.22344E+02</wgt>
<wgt id='6020'>0.22317E+02</wgt>
<wgt id='6021'>0.22281E+02</wgt>
<wgt id='6022'>0.22397E+02</wgt>
<wgt id='6023'>0.22168E+02</wgt>
<wgt id='6024'>0.22445E+02</wgt>
<wgt id='6025'>0.22278E+02</wgt>
<wgt id='6026'>0.22307E+02</wgt>
<wgt id='6027'>0.22394E+02</wgt>
<wgt id='6028'>0.22330E+02</wgt>
<wgt id='6029'>0.22398E+02</wgt>
<wgt id='6030'>0.22249E+02</wgt>
<wgt id='6031'>0.22302E+02</wgt>
<wgt id='6032'>0.22350E+02</wgt>
<wgt id='6033'>0.22383E+02</wgt>
<wgt id='6034'>0.22276E+02</wgt>
<wgt id='6035'>0.22336E+02</wgt>
<wgt id='6036'>0.22360E+02</wgt>
<wgt id='6037'>0.22370E+02</wgt>
<wgt id='6038'>0.22330E+02</wgt>
<wgt id='6039'>0.22294E+02</wgt>
<wgt id='6040'>0.22369E+02</wgt>
<wgt id='6041'>0.22278E+02</wgt>
<wgt id='6042'>0.22394E+02</wgt>
<wgt id='6043'>0.22639E+02</wgt>
<wgt id='6044'>0.22209E+02</wgt>
<wgt id='6045'>0.22312E+02</wgt>
<wgt id='6046'>0.22379E+02</wgt>
<wgt id='6047'>0.22462E+02</wgt>
<wgt id='6048'>0.22087E+02</wgt>
<wgt id='6049'>0.22394E+02</wgt>
<wgt id='6050'>0.22294E+02</wgt>
<wgt id='7000'>0.21043E+02</wgt>
<wgt id='7001'>0.21057E+02</wgt>
<wgt id='7002'>0.21027E+02</wgt>
<wgt id='7003'>0.21102E+02</wgt>
<wgt id='7004'>0.20986E+02</wgt>
<wgt id='7005'>0.21080E+02</wgt>
<wgt id='7006'>0.21029E+02</wgt>
<wgt id='7007'>0.20962E+02</wgt>
<wgt id='7008'>0.21125E+02</wgt>
<wgt id='7009'>0.21088E+02</wgt>
<wgt id='7010'>0.21000E+02</wgt>
<wgt id='7011'>0.20823E+02</wgt>
<wgt id='7012'>0.21139E+02</wgt>
<wgt id='7013'>0.21042E+02</wgt>
<wgt id='7014'>0.21045E+02</wgt>
<wgt id='7015'>0.20978E+02</wgt>
<wgt id='7016'>0.21114E+02</wgt>
<wgt id='7017'>0.20913E+02</wgt>
<wgt id='7018'>0.21113E+02</wgt>
<wgt id='7019'>0.21019E+02</wgt>
<wgt id='7020'>0.21079E+02</wgt>
<wgt id='7021'>0.21045E+02</wgt>
<wgt id='7022'>0.21041E+02</wgt>
<wgt id='7023'>0.21178E+02</wgt>
<wgt id='7024'>0.20899E+02</wgt>
<wgt id='7025'>0.21108E+02</wgt>
<wgt id='7026'>0.20885E+02</wgt>
<wgt id='7027'>0.21122E+02</wgt>
<wgt id='7028'>0.21022E+02</wgt>
<wgt id='7029'>0.21001E+02</wgt>
<wgt id='7030'>0.21135E+02</wgt>
<wgt id='7031'>0.21024E+02</wgt>
<wgt id='7032'>0.21092E+02</wgt>
<wgt id='7033'>0.21035E+02</wgt>
<wgt id='7034'>0.21076E+02</wgt>
<wgt id='7035'>0.21050E+02</wgt>
<wgt id='7036'>0.21053E+02</wgt>
<wgt id='7037'>0.21050E+02</wgt>
<wgt id='7038'>0.21058E+02</wgt>
<wgt id='7039'>0.21002E+02</wgt>
<wgt id='7040'>0.21073E+02</wgt>
<wgt id='7041'>0.21015E+02</wgt>
<wgt id='7042'>0.21077E+02</wgt>
<wgt id='7043'>0.21060E+02</wgt>
<wgt id='7044'>0.20949E+02</wgt>
<wgt id='7045'>0.20855E+02</wgt>
<wgt id='7046'>0.21167E+02</wgt>
<wgt id='7047'>0.21108E+02</wgt>
<wgt id='7048'>0.21015E+02</wgt>
<wgt id='7049'>0.20993E+02</wgt>
<wgt id='7050'>0.21081E+02</wgt>
<wgt id='7060'>0.32803E+02</wgt>
<wgt id='8000'>0.21301E+02</wgt>
<wgt id='8001'>0.21296E+02</wgt>
<wgt id='8002'>0.21307E+02</wgt>
<wgt id='8003'>0.21302E+02</wgt>
<wgt id='8004'>0.21300E+02</wgt>
<wgt id='8005'>0.21248E+02</wgt>
<wgt id='8006'>0.21293E+02</wgt>
<wgt id='8007'>0.21282E+02</wgt>
<wgt id='8008'>0.21342E+02</wgt>
<wgt id='8009'>0.21385E+02</wgt>
<wgt id='8010'>0.21299E+02</wgt>
<wgt id='8011'>0.21292E+02</wgt>
<wgt id='8012'>0.21268E+02</wgt>
<wgt id='8013'>0.21291E+02</wgt>
<wgt id='8014'>0.21301E+02</wgt>
<wgt id='8015'>0.21283E+02</wgt>
<wgt id='8016'>0.21313E+02</wgt>
<wgt id='8017'>0.21313E+02</wgt>
<wgt id='8018'>0.21313E+02</wgt>
<wgt id='8019'>0.21325E+02</wgt>
<wgt id='8020'>0.21254E+02</wgt>
<wgt id='8021'>0.21297E+02</wgt>
<wgt id='8022'>0.21217E+02</wgt>
<wgt id='8023'>0.21306E+02</wgt>
<wgt id='8024'>0.21311E+02</wgt>
<wgt id='8025'>0.21344E+02</wgt>
<wgt id='8026'>0.21338E+02</wgt>
<wgt id='8027'>0.21277E+02</wgt>
<wgt id='8028'>0.21322E+02</wgt>
<wgt id='8029'>0.21167E+02</wgt>
<wgt id='8500'>0.22210E+02</wgt>
<wgt id='8501'>0.22112E+02</wgt>
<wgt id='8502'>0.22281E+02</wgt>
<wgt id='8503'>0.22294E+02</wgt>
<wgt id='8504'>0.22165E+02</wgt>
<wgt id='8505'>0.22213E+02</wgt>
<wgt id='8506'>0.22206E+02</wgt>
<wgt id='8507'>0.22268E+02</wgt>
<wgt id='8508'>0.22244E+02</wgt>
<wgt id='8509'>0.22227E+02</wgt>
<wgt id='8510'>0.22477E+02</wgt>
<wgt id='8511'>0.22221E+02</wgt>
<wgt id='8512'>0.22089E+02</wgt>
<wgt id='8513'>0.22211E+02</wgt>
<wgt id='8514'>0.21974E+02</wgt>
<wgt id='8515'>0.22298E+02</wgt>
<wgt id='8516'>0.22224E+02</wgt>
<wgt id='8517'>0.22092E+02</wgt>
<wgt id='8518'>0.22127E+02</wgt>
<wgt id='8519'>0.22134E+02</wgt>
<wgt id='8520'>0.22203E+02</wgt>
<wgt id='8521'>0.22106E+02</wgt>
<wgt id='8522'>0.22235E+02</wgt>
<wgt id='8523'>0.22143E+02</wgt>
<wgt id='8524'>0.22201E+02</wgt>
<wgt id='8525'>0.22183E+02</wgt>
<wgt id='8526'>0.22157E+02</wgt>
<wgt id='8527'>0.22202E+02</wgt>
<wgt id='8528'>0.22149E+02</wgt>
<wgt id='8529'>0.22183E+02</wgt>
<wgt id='8530'>0.22227E+02</wgt>
<wgt id='8531'>0.22200E+02</wgt>
<wgt id='8532'>0.22214E+02</wgt>
<wgt id='8533'>0.22150E+02</wgt>
<wgt id='8534'>0.22209E+02</wgt>
<wgt id='8535'>0.22270E+02</wgt>
<wgt id='8536'>0.22197E+02</wgt>
<wgt id='8537'>0.22216E+02</wgt>
<wgt id='8538'>0.22192E+02</wgt>
<wgt id='8539'>0.22213E+02</wgt>
<wgt id='8540'>0.22213E+02</wgt>
<wgt id='8541'>0.22221E+02</wgt>
<wgt id='8542'>0.22224E+02</wgt>
<wgt id='8543'>0.22188E+02</wgt>
<wgt id='8544'>0.22228E+02</wgt>
<wgt id='8545'>0.22228E+02</wgt>
<wgt id='8546'>0.22237E+02</wgt>
<wgt id='8547'>0.22190E+02</wgt>
<wgt id='8548'>0.22191E+02</wgt>
<wgt id='8549'>0.22210E+02</wgt>
<wgt id='8550'>0.22214E+02</wgt>
<wgt id='8551'>0.22193E+02</wgt>
<wgt id='8552'>0.22212E+02</wgt>
<wgt id='8553'>0.22198E+02</wgt>
<wgt id='8554'>0.22202E+02</wgt>
<wgt id='8555'>0.22212E+02</wgt>
<wgt id='8556'>0.22206E+02</wgt>
<wgt id='8557'>0.22206E+02</wgt>
<wgt id='8558'>0.22235E+02</wgt>
<wgt id='8559'>0.22198E+02</wgt>
<wgt id='8560'>0.22184E+02</wgt>
<wgt id='8561'>0.22207E+02</wgt>
<wgt id='8562'>0.22192E+02</wgt>
<wgt id='8563'>0.22212E+02</wgt>
<wgt id='8564'>0.22205E+02</wgt>
<wgt id='8565'>0.22211E+02</wgt>
<wgt id='8566'>0.22205E+02</wgt>
<wgt id='8567'>0.22207E+02</wgt>
<wgt id='8568'>0.22219E+02</wgt>
<wgt id='8569'>0.22216E+02</wgt>
<wgt id='8570'>0.22211E+02</wgt>
<wgt id='8571'>0.22198E+02</wgt>
<wgt id='8572'>0.22201E+02</wgt>
<wgt id='8573'>0.22201E+02</wgt>
<wgt id='8574'>0.22216E+02</wgt>
<wgt id='8575'>0.22207E+02</wgt>
<wgt id='8576'>0.22207E+02</wgt>
<wgt id='8577'>0.22210E+02</wgt>
<wgt id='8578'>0.22212E+02</wgt>
<wgt id='8579'>0.22224E+02</wgt>
<wgt id='8580'>0.22210E+02</wgt>
<wgt id='8581'>0.22216E+02</wgt>
<wgt id='8582'>0.22194E+02</wgt>
<wgt id='8583'>0.22220E+02</wgt>
<wgt id='8584'>0.22215E+02</wgt>
<wgt id='8585'>0.22216E+02</wgt>
<wgt id='8586'>0.22220E+02</wgt>
<wgt id='8587'>0.22206E+02</wgt>
<wgt id='8588'>0.22204E+02</wgt>
<wgt id='8589'>0.22210E+02</wgt>
<wgt id='8590'>0.22208E+02</wgt>
<wgt id='8591'>0.22208E+02</wgt>
<wgt id='8592'>0.22210E+02</wgt>
<wgt id='8593'>0.22201E+02</wgt>
<wgt id='8594'>0.22214E+02</wgt>
<wgt id='8595'>0.22213E+02</wgt>
<wgt id='8596'>0.22205E+02</wgt>
<wgt id='8597'>0.22212E+02</wgt>
<wgt id='8598'>0.22216E+02</wgt>
<wgt id='8599'>0.22213E+02</wgt>
<wgt id='8600'>0.22210E+02</wgt>
<wgt id='8601'>0.21826E+02</wgt>
<wgt id='8602'>0.22561E+02</wgt>
<wgt id='9000'>0.21101E+02</wgt>
<wgt id='9001'>0.21108E+02</wgt>
<wgt id='9002'>0.21155E+02</wgt>
<wgt id='9003'>0.21008E+02</wgt>
<wgt id='9004'>0.21098E+02</wgt>
<wgt id='9005'>0.21120E+02</wgt>
<wgt id='9006'>0.21126E+02</wgt>
<wgt id='9007'>0.21193E+02</wgt>
<wgt id='9008'>0.21156E+02</wgt>
<wgt id='9009'>0.21080E+02</wgt>
<wgt id='9010'>0.21031E+02</wgt>
<wgt id='9011'>0.21270E+02</wgt>
<wgt id='9012'>0.21002E+02</wgt>
<wgt id='9013'>0.20906E+02</wgt>
<wgt id='9014'>0.21036E+02</wgt>
<wgt id='9015'>0.21108E+02</wgt>
<wgt id='9016'>0.21293E+02</wgt>
<wgt id='9017'>0.21002E+02</wgt>
<wgt id='9018'>0.21054E+02</wgt>
<wgt id='9019'>0.21080E+02</wgt>
<wgt id='9020'>0.21221E+02</wgt>
<wgt id='9021'>0.21111E+02</wgt>
<wgt id='9022'>0.21147E+02</wgt>
<wgt id='9023'>0.21016E+02</wgt>
<wgt id='9024'>0.21060E+02</wgt>
<wgt id='9025'>0.21119E+02</wgt>
<wgt id='9026'>0.21104E+02</wgt>
<wgt id='9027'>0.21082E+02</wgt>
<wgt id='9028'>0.21121E+02</wgt>
<wgt id='9029'>0.21130E+02</wgt>
<wgt id='9030'>0.21136E+02</wgt>
<wgt id='9031'>0.21081E+02</wgt>
<wgt id='9032'>0.21114E+02</wgt>
<wgt id='9033'>0.21128E+02</wgt>
<wgt id='9034'>0.21100E+02</wgt>
<wgt id='9035'>0.21139E+02</wgt>
<wgt id='9036'>0.21105E+02</wgt>
<wgt id='9037'>0.21121E+02</wgt>
<wgt id='9038'>0.21107E+02</wgt>
<wgt id='9039'>0.21104E+02</wgt>
<wgt id='9040'>0.21080E+02</wgt>
<wgt id='9041'>0.21094E+02</wgt>
<wgt id='9042'>0.21097E+02</wgt>
<wgt id='9043'>0.21077E+02</wgt>
<wgt id='9044'>0.21107E+02</wgt>
<wgt id='9045'>0.21098E+02</wgt>
<wgt id='9046'>0.21072E+02</wgt>
<wgt id='9047'>0.21097E+02</wgt>
<wgt id='9048'>0.21107E+02</wgt>
<wgt id='9049'>0.21090E+02</wgt>
<wgt id='9050'>0.21103E+02</wgt>
<wgt id='9051'>0.21113E+02</wgt>
<wgt id='9052'>0.21110E+02</wgt>
<wgt id='9053'>0.21104E+02</wgt>
<wgt id='9054'>0.21091E+02</wgt>
<wgt id='9055'>0.21094E+02</wgt>
<wgt id='9056'>0.21121E+02</wgt>
<wgt id='9057'>0.21100E+02</wgt>
<wgt id='9058'>0.21083E+02</wgt>
<wgt id='9059'>0.21092E+02</wgt>
<wgt id='9060'>0.21094E+02</wgt>
<wgt id='9061'>0.21103E+02</wgt>
<wgt id='9062'>0.21106E+02</wgt>
<wgt id='9063'>0.21111E+02</wgt>
<wgt id='9064'>0.21096E+02</wgt>
<wgt id='9065'>0.21100E+02</wgt>
<wgt id='9066'>0.21103E+02</wgt>
<wgt id='9067'>0.21109E+02</wgt>
<wgt id='9068'>0.21107E+02</wgt>
<wgt id='9069'>0.21116E+02</wgt>
<wgt id='9070'>0.21099E+02</wgt>
<wgt id='9071'>0.21113E+02</wgt>
<wgt id='9072'>0.21115E+02</wgt>
<wgt id='9073'>0.21096E+02</wgt>
<wgt id='9074'>0.21105E+02</wgt>
<wgt id='9075'>0.21100E+02</wgt>
<wgt id='9076'>0.21098E+02</wgt>
<wgt id='9077'>0.21105E+02</wgt>
<wgt id='9078'>0.21103E+02</wgt>
<wgt id='9079'>0.21098E+02</wgt>
<wgt id='9080'>0.21117E+02</wgt>
<wgt id='9081'>0.21099E+02</wgt>
<wgt id='9082'>0.21106E+02</wgt>
<wgt id='9083'>0.21095E+02</wgt>
<wgt id='9084'>0.21095E+02</wgt>
<wgt id='9085'>0.21094E+02</wgt>
<wgt id='9086'>0.21103E+02</wgt>
<wgt id='9087'>0.21088E+02</wgt>
<wgt id='9088'>0.21097E+02</wgt>
<wgt id='9089'>0.21097E+02</wgt>
<wgt id='9090'>0.21105E+02</wgt>
<wgt id='9091'>0.21100E+02</wgt>
<wgt id='9092'>0.21101E+02</wgt>
<wgt id='9093'>0.21097E+02</wgt>
<wgt id='9094'>0.21101E+02</wgt>
<wgt id='9095'>0.21104E+02</wgt>
<wgt id='9096'>0.21096E+02</wgt>
<wgt id='9097'>0.21103E+02</wgt>
<wgt id='9098'>0.21102E+02</wgt>
<wgt id='9099'>0.21096E+02</wgt>
<wgt id='9100'>0.21101E+02</wgt>
<wgt id='9101'>0.20815E+02</wgt>
<wgt id='9102'>0.21395E+02</wgt>
<wgt id='10000'>0.22209E+02</wgt>
<wgt id='10001'>0.22292E+02</wgt>
<wgt id='10002'>0.22080E+02</wgt>
<wgt id='10003'>0.22200E+02</wgt>
<wgt id='10004'>0.22076E+02</wgt>
<wgt id='10005'>0.22528E+02</wgt>
<wgt id='10006'>0.22153E+02</wgt>
<wgt id='10007'>0.22196E+02</wgt>
<wgt id='10008'>0.22284E+02</wgt>
<wgt id='10009'>0.22152E+02</wgt>
<wgt id='10010'>0.22256E+02</wgt>
<wgt id='10011'>0.22167E+02</wgt>
<wgt id='10012'>0.22176E+02</wgt>
<wgt id='10013'>0.22215E+02</wgt>
<wgt id='10014'>0.22190E+02</wgt>
<wgt id='10015'>0.22230E+02</wgt>
<wgt id='10016'>0.22165E+02</wgt>
<wgt id='10017'>0.22079E+02</wgt>
<wgt id='10018'>0.22244E+02</wgt>
<wgt id='10019'>0.22200E+02</wgt>
<wgt id='10020'>0.22171E+02</wgt>
<wgt id='10021'>0.22194E+02</wgt>
<wgt id='10022'>0.22185E+02</wgt>
<wgt id='10023'>0.22219E+02</wgt>
<wgt id='10024'>0.22184E+02</wgt>
<wgt id='10025'>0.22185E+02</wgt>
<wgt id='10026'>0.22277E+02</wgt>
<wgt id='10027'>0.22260E+02</wgt>
<wgt id='10028'>0.22422E+02</wgt>
<wgt id='10029'>0.22240E+02</wgt>
<wgt id='10030'>0.22201E+02</wgt>
<wgt id='10031'>0.21826E+02</wgt>
<wgt id='10032'>0.22561E+02</wgt>
<wgt id='11000'>0.21100E+02</wgt>
<wgt id='11001'>0.20915E+02</wgt>
<wgt id='11002'>0.21152E+02</wgt>
<wgt id='11003'>0.21075E+02</wgt>
<wgt id='11004'>0.21156E+02</wgt>
<wgt id='11005'>0.20929E+02</wgt>
<wgt id='11006'>0.21108E+02</wgt>
<wgt id='11007'>0.21054E+02</wgt>
<wgt id='11008'>0.21046E+02</wgt>
<wgt id='11009'>0.21034E+02</wgt>
<wgt id='11010'>0.21266E+02</wgt>
<wgt id='11011'>0.21045E+02</wgt>
<wgt id='11012'>0.21110E+02</wgt>
<wgt id='11013'>0.21151E+02</wgt>
<wgt id='11014'>0.21068E+02</wgt>
<wgt id='11015'>0.21088E+02</wgt>
<wgt id='11016'>0.21088E+02</wgt>
<wgt id='11017'>0.21204E+02</wgt>
<wgt id='11018'>0.21091E+02</wgt>
<wgt id='11019'>0.21090E+02</wgt>
<wgt id='11020'>0.21147E+02</wgt>
<wgt id='11021'>0.21133E+02</wgt>
<wgt id='11022'>0.21339E+02</wgt>
<wgt id='11023'>0.21105E+02</wgt>
<wgt id='11024'>0.21129E+02</wgt>
<wgt id='11025'>0.21081E+02</wgt>
<wgt id='11026'>0.21105E+02</wgt>
<wgt id='11027'>0.21098E+02</wgt>
<wgt id='11028'>0.21124E+02</wgt>
<wgt id='11029'>0.21145E+02</wgt>
<wgt id='11030'>0.21098E+02</wgt>
<wgt id='11031'>0.20815E+02</wgt>
<wgt id='11032'>0.21395E+02</wgt>
<wgt id='12000'>0.23079E+02</wgt>
<wgt id='12001'>0.23047E+02</wgt>
<wgt id='12002'>0.23110E+02</wgt>
<wgt id='12003'>0.23138E+02</wgt>
<wgt id='12004'>0.23019E+02</wgt>
<wgt id='12005'>0.23110E+02</wgt>
<wgt id='12006'>0.23047E+02</wgt>
<wgt id='12007'>0.23138E+02</wgt>
<wgt id='12008'>0.23021E+02</wgt>
<wgt id='12009'>0.23101E+02</wgt>
<wgt id='12010'>0.23057E+02</wgt>
<wgt id='12011'>0.22987E+02</wgt>
<wgt id='12012'>0.23171E+02</wgt>
<wgt id='12013'>0.23003E+02</wgt>
<wgt id='12014'>0.23155E+02</wgt>
<wgt id='12015'>0.23102E+02</wgt>
<wgt id='12016'>0.23053E+02</wgt>
<wgt id='12017'>0.23160E+02</wgt>
<wgt id='12018'>0.22990E+02</wgt>
<wgt id='12019'>0.23051E+02</wgt>
<wgt id='12020'>0.23105E+02</wgt>
<wgt id='12021'>0.23151E+02</wgt>
<wgt id='12022'>0.22983E+02</wgt>
<wgt id='12023'>0.22930E+02</wgt>
<wgt id='12024'>0.23122E+02</wgt>
<wgt id='12025'>0.23068E+02</wgt>
<wgt id='12026'>0.23120E+02</wgt>
<wgt id='12027'>0.23183E+02</wgt>
<wgt id='12028'>0.22998E+02</wgt>
<wgt id='12050'>0.23079E+02</wgt>
<wgt id='12051'>0.23088E+02</wgt>
<wgt id='12052'>0.23049E+02</wgt>
<wgt id='12053'>0.23083E+02</wgt>
<wgt id='12054'>0.23059E+02</wgt>
<wgt id='12055'>0.23158E+02</wgt>
<wgt id='12056'>0.23049E+02</wgt>
<wgt id='12057'>0.23014E+02</wgt>
<wgt id='12058'>0.23146E+02</wgt>
<wgt id='12059'>0.23065E+02</wgt>
<wgt id='12060'>0.23103E+02</wgt>
<wgt id='12061'>0.23031E+02</wgt>
<wgt id='12062'>0.23123E+02</wgt>
<wgt id='12063'>0.22923E+02</wgt>
<wgt id='13000'>0.21593E+02</wgt>
<wgt id='13001'>0.21576E+02</wgt>
<wgt id='13002'>0.21607E+02</wgt>
<wgt id='13003'>0.21627E+02</wgt>
<wgt id='13004'>0.21556E+02</wgt>
<wgt id='13005'>0.21641E+02</wgt>
<wgt id='13006'>0.21542E+02</wgt>
<wgt id='13007'>0.21680E+02</wgt>
<wgt id='13008'>0.21504E+02</wgt>
<wgt id='13009'>0.21567E+02</wgt>
<wgt id='13010'>0.21617E+02</wgt>
<wgt id='13011'>0.21654E+02</wgt>
<wgt id='13012'>0.21529E+02</wgt>
<wgt id='13013'>0.21539E+02</wgt>
<wgt id='13014'>0.21645E+02</wgt>
<wgt id='13015'>0.21584E+02</wgt>
<wgt id='13016'>0.21602E+02</wgt>
<wgt id='13017'>0.21580E+02</wgt>
<wgt id='13018'>0.21600E+02</wgt>
<wgt id='13019'>0.21570E+02</wgt>
<wgt id='13020'>0.21612E+02</wgt>
<wgt id='13021'>0.21494E+02</wgt>
<wgt id='13022'>0.21660E+02</wgt>
<wgt id='13023'>0.21539E+02</wgt>
<wgt id='13024'>0.21640E+02</wgt>
<wgt id='13025'>0.21451E+02</wgt>
<wgt id='13026'>0.21679E+02</wgt>
<wgt id='13027'>0.21557E+02</wgt>
<wgt id='13028'>0.21651E+02</wgt>
<wgt id='13050'>0.21593E+02</wgt>
<wgt id='13051'>0.21609E+02</wgt>
<wgt id='13052'>0.21510E+02</wgt>
<wgt id='13053'>0.21599E+02</wgt>
<wgt id='13054'>0.21579E+02</wgt>
<wgt id='13055'>0.21420E+02</wgt>
<wgt id='13056'>0.21617E+02</wgt>
<wgt id='13057'>0.21529E+02</wgt>
<wgt id='13058'>0.21698E+02</wgt>
<wgt id='13059'>0.21541E+02</wgt>
<wgt id='13060'>0.21434E+02</wgt>
<wgt id='13061'>0.21530E+02</wgt>
<wgt id='13062'>0.21762E+02</wgt>
<wgt id='13063'>0.21569E+02</wgt>
<wgt id='14000'>0.21895E+02</wgt>
<wgt id='14001'>0.21892E+02</wgt>
<wgt id='14002'>0.21888E+02</wgt>
<wgt id='14003'>0.21885E+02</wgt>
<wgt id='14004'>0.21882E+02</wgt>
<wgt id='14005'>0.21878E+02</wgt>
<wgt id='14006'>0.21875E+02</wgt>
<wgt id='14007'>0.21872E+02</wgt>
<wgt id='14008'>0.21869E+02</wgt>
<wgt id='14009'>0.21865E+02</wgt>
<wgt id='14010'>0.21862E+02</wgt>
<wgt id='14011'>0.21859E+02</wgt>
<wgt id='14012'>0.21856E+02</wgt>
<wgt id='14013'>0.21852E+02</wgt>
<wgt id='14014'>0.21849E+02</wgt>
<wgt id='14015'>0.21846E+02</wgt>
<wgt id='14016'>0.21842E+02</wgt>
<wgt id='14017'>0.21839E+02</wgt>
<wgt id='14018'>0.21836E+02</wgt>
<wgt id='14019'>0.21833E+02</wgt>
<wgt id='14020'>0.21829E+02</wgt>
<wgt id='14021'>0.21826E+02</wgt>
<wgt id='14022'>0.21823E+02</wgt>
<wgt id='14023'>0.21820E+02</wgt>
<wgt id='14024'>0.21816E+02</wgt>
<wgt id='14025'>0.21813E+02</wgt>
<wgt id='14026'>0.21810E+02</wgt>
<wgt id='14027'>0.21807E+02</wgt>
<wgt id='14028'>0.21803E+02</wgt>
<wgt id='14029'>0.21800E+02</wgt>
<wgt id='14030'>0.21797E+02</wgt>
<wgt id='15000'>0.20828E+02</wgt>
<wgt id='15001'>0.20829E+02</wgt>
<wgt id='15002'>0.20879E+02</wgt>
<wgt id='15003'>0.20737E+02</wgt>
<wgt id='15004'>0.20824E+02</wgt>
<wgt id='15005'>0.20847E+02</wgt>
<wgt id='15006'>0.20858E+02</wgt>
<wgt id='15007'>0.20923E+02</wgt>
<wgt id='15008'>0.20882E+02</wgt>
<wgt id='15009'>0.20809E+02</wgt>
<wgt id='15010'>0.20759E+02</wgt>
<wgt id='15011'>0.21001E+02</wgt>
<wgt id='15012'>0.20732E+02</wgt>
<wgt id='15013'>0.20639E+02</wgt>
<wgt id='15014'>0.20761E+02</wgt>
<wgt id='15015'>0.20824E+02</wgt>
<wgt id='15016'>0.21024E+02</wgt>
<wgt id='15017'>0.20728E+02</wgt>
<wgt id='15018'>0.20780E+02</wgt>
<wgt id='15019'>0.20812E+02</wgt>
<wgt id='15020'>0.20952E+02</wgt>
<wgt id='15021'>0.20833E+02</wgt>
<wgt id='15022'>0.20873E+02</wgt>
<wgt id='15023'>0.20745E+02</wgt>
<wgt id='15024'>0.20784E+02</wgt>
<wgt id='15025'>0.20842E+02</wgt>
<wgt id='15026'>0.20826E+02</wgt>
<wgt id='15027'>0.20814E+02</wgt>
<wgt id='15028'>0.20850E+02</wgt>
<wgt id='15029'>0.20854E+02</wgt>
<wgt id='15030'>0.20859E+02</wgt>
<wgt id='15031'>0.20814E+02</wgt>
<wgt id='15032'>0.20840E+02</wgt>
<wgt id='15033'>0.20853E+02</wgt>
<wgt id='15034'>0.20827E+02</wgt>
<wgt id='15035'>0.20864E+02</wgt>
<wgt id='15036'>0.20832E+02</wgt>
<wgt id='15037'>0.20848E+02</wgt>
<wgt id='15038'>0.20833E+02</wgt>
<wgt id='15039'>0.20828E+02</wgt>
<wgt id='15040'>0.20807E+02</wgt>
<wgt id='15041'>0.20819E+02</wgt>
<wgt id='15042'>0.20823E+02</wgt>
<wgt id='15043'>0.20808E+02</wgt>
<wgt id='15044'>0.20833E+02</wgt>
<wgt id='15045'>0.20824E+02</wgt>
<wgt id='15046'>0.20801E+02</wgt>
<wgt id='15047'>0.20823E+02</wgt>
<wgt id='15048'>0.20835E+02</wgt>
<wgt id='15049'>0.20816E+02</wgt>
<wgt id='15050'>0.20831E+02</wgt>
<wgt id='15051'>0.20839E+02</wgt>
<wgt id='15052'>0.20836E+02</wgt>
<wgt id='15053'>0.20832E+02</wgt>
<wgt id='15054'>0.20819E+02</wgt>
<wgt id='15055'>0.20822E+02</wgt>
<wgt id='15056'>0.20846E+02</wgt>
<wgt id='15057'>0.20827E+02</wgt>
<wgt id='15058'>0.20812E+02</wgt>
<wgt id='15059'>0.20819E+02</wgt>
<wgt id='15060'>0.20822E+02</wgt>
<wgt id='15061'>0.20830E+02</wgt>
<wgt id='15062'>0.20832E+02</wgt>
<wgt id='15063'>0.20837E+02</wgt>
<wgt id='15064'>0.20824E+02</wgt>
<wgt id='15065'>0.20827E+02</wgt>
<wgt id='15066'>0.20830E+02</wgt>
<wgt id='15067'>0.20835E+02</wgt>
<wgt id='15068'>0.20834E+02</wgt>
<wgt id='15069'>0.20841E+02</wgt>
<wgt id='15070'>0.20825E+02</wgt>
<wgt id='15071'>0.20841E+02</wgt>
<wgt id='15072'>0.20842E+02</wgt>
<wgt id='15073'>0.20822E+02</wgt>
<wgt id='15074'>0.20832E+02</wgt>
<wgt id='15075'>0.20827E+02</wgt>
<wgt id='15076'>0.20826E+02</wgt>
<wgt id='15077'>0.20832E+02</wgt>
<wgt id='15078'>0.20831E+02</wgt>
<wgt id='15079'>0.20824E+02</wgt>
<wgt id='15080'>0.20843E+02</wgt>
<wgt id='15081'>0.20826E+02</wgt>
<wgt id='15082'>0.20833E+02</wgt>
<wgt id='15083'>0.20821E+02</wgt>
<wgt id='15084'>0.20821E+02</wgt>
<wgt id='15085'>0.20822E+02</wgt>
<wgt id='15086'>0.20831E+02</wgt>
<wgt id='15087'>0.20814E+02</wgt>
<wgt id='15088'>0.20823E+02</wgt>
<wgt id='15089'>0.20823E+02</wgt>
<wgt id='15090'>0.20832E+02</wgt>
<wgt id='15091'>0.20826E+02</wgt>
<wgt id='15092'>0.20828E+02</wgt>
<wgt id='15093'>0.20824E+02</wgt>
<wgt id='15094'>0.20827E+02</wgt>
<wgt id='15095'>0.20831E+02</wgt>
<wgt id='15096'>0.20823E+02</wgt>
<wgt id='15097'>0.20830E+02</wgt>
<wgt id='15098'>0.20828E+02</wgt>
<wgt id='15099'>0.20824E+02</wgt>
<wgt id='15100'>0.20828E+02</wgt>
<wgt id='15101'>0.20828E+02</wgt>
<wgt id='15102'>0.20826E+02</wgt>
<wgt id='15103'>0.20828E+02</wgt>
<wgt id='15104'>0.20828E+02</wgt>
<wgt id='15105'>0.20829E+02</wgt>
<wgt id='15106'>0.20828E+02</wgt>
<wgt id='15107'>0.20827E+02</wgt>
<wgt id='1500'>0.22356E+02</wgt>
<wgt id='1501'>0.21162E+02</wgt>
<wgt id='1502'>0.22278E+02</wgt>
<wgt id='1503'>0.22635E+02</wgt>
<wgt id='1504'>0.21981E+02</wgt>
<wgt id='1505'>0.20918E+02</wgt>
<wgt id='1506'>0.22939E+02</wgt>
<wgt id='1507'>0.22411E+02</wgt>
<wgt id='1508'>0.22406E+02</wgt>
<wgt id='1509'>0.22691E+02</wgt>
<wgt id='1510'>0.21808E+02</wgt>
<wgt id='1511'>0.21776E+02</wgt>
<wgt id='1512'>0.22754E+02</wgt>
<wgt id='1513'>0.22759E+02</wgt>
<wgt id='1514'>0.22178E+02</wgt>
<wgt id='1515'>0.22978E+02</wgt>
<wgt id='1516'>0.22495E+02</wgt>
<wgt id='1517'>0.22284E+02</wgt>
<wgt id='1518'>0.22225E+02</wgt>
<wgt id='1519'>0.22661E+02</wgt>
<wgt id='1520'>0.22974E+02</wgt>
<wgt id='1521'>0.22714E+02</wgt>
<wgt id='1522'>0.22184E+02</wgt>
<wgt id='1523'>0.24024E+02</wgt>
<wgt id='1524'>0.22432E+02</wgt>
<wgt id='1525'>0.22337E+02</wgt>
<wgt id='1526'>0.22287E+02</wgt>
<wgt id='1527'>0.22055E+02</wgt>
<wgt id='1528'>0.22119E+02</wgt>
<wgt id='1529'>0.22589E+02</wgt>
<wgt id='1530'>0.23043E+02</wgt>
<wgt id='1531'>0.22356E+02</wgt>
<wgt id='1532'>0.21837E+02</wgt>
<wgt id='1533'>0.21967E+02</wgt>
<wgt id='1534'>0.22531E+02</wgt>
<wgt id='1535'>0.22767E+02</wgt>
<wgt id='1536'>0.22221E+02</wgt>
<wgt id='1537'>0.22842E+02</wgt>
<wgt id='1538'>0.22271E+02</wgt>
<wgt id='1539'>0.21917E+02</wgt>
<wgt id='1540'>0.22334E+02</wgt>
<wgt id='1541'>0.22404E+02</wgt>
<wgt id='1542'>0.22302E+02</wgt>
<wgt id='1543'>0.22392E+02</wgt>
<wgt id='1544'>0.22385E+02</wgt>
<wgt id='1545'>0.22226E+02</wgt>
<wgt id='1546'>0.22729E+02</wgt>
<wgt id='1547'>0.22028E+02</wgt>
<wgt id='1548'>0.22190E+02</wgt>
<wgt id='1549'>0.22007E+02</wgt>
<wgt id='1550'>0.22163E+02</wgt>
<wgt id='1551'>0.22248E+02</wgt>
<wgt id='1552'>0.22051E+02</wgt>
<wgt id='1553'>0.22637E+02</wgt>
<wgt id='1554'>0.22532E+02</wgt>
<wgt id='1555'>0.21963E+02</wgt>
<wgt id='1556'>0.22109E+02</wgt>
<wgt id='1557'>0.22532E+02</wgt>
<wgt id='1558'>0.22056E+02</wgt>
<wgt id='1559'>0.22912E+02</wgt>
<wgt id='1560'>0.22192E+02</wgt>
<wgt id='1561'>0.22176E+02</wgt>
<wgt id='1562'>0.22525E+02</wgt>
<wgt id='1563'>0.22275E+02</wgt>
<wgt id='1564'>0.21944E+02</wgt>
<wgt id='1565'>0.22308E+02</wgt>
<wgt id='1566'>0.22526E+02</wgt>
<wgt id='1567'>0.23879E+02</wgt>
<wgt id='1568'>0.22156E+02</wgt>
<wgt id='1569'>0.21662E+02</wgt>
<wgt id='1570'>0.22015E+02</wgt>
<wgt id='1571'>0.22163E+02</wgt>
<wgt id='1572'>0.22653E+02</wgt>
<wgt id='1573'>0.21104E+02</wgt>
<wgt id='1574'>0.22746E+02</wgt>
<wgt id='1575'>0.22099E+02</wgt>
<wgt id='1576'>0.22124E+02</wgt>
<wgt id='1577'>0.22635E+02</wgt>
<wgt id='1578'>0.22932E+02</wgt>
<wgt id='1579'>0.22031E+02</wgt>
<wgt id='1580'>0.22336E+02</wgt>
<wgt id='1581'>0.22511E+02</wgt>
<wgt id='1582'>0.21895E+02</wgt>
<wgt id='1583'>0.22925E+02</wgt>
<wgt id='1584'>0.22129E+02</wgt>
<wgt id='1585'>0.22013E+02</wgt>
<wgt id='1586'>0.22182E+02</wgt>
<wgt id='1587'>0.22454E+02</wgt>
<wgt id='1588'>0.22212E+02</wgt>
<wgt id='1589'>0.23147E+02</wgt>
<wgt id='1590'>0.22253E+02</wgt>
<wgt id='1591'>0.22074E+02</wgt>
<wgt id='1592'>0.22204E+02</wgt>
<wgt id='1593'>0.22290E+02</wgt>
<wgt id='1594'>0.22894E+02</wgt>
<wgt id='1595'>0.22042E+02</wgt>
<wgt id='1596'>0.22581E+02</wgt>
<wgt id='1597'>0.22197E+02</wgt>
<wgt id='1598'>0.22619E+02</wgt>
<wgt id='1599'>0.22539E+02</wgt>
<wgt id='1600'>0.22950E+02</wgt>
<wgt id='1601'>0.22050E+02</wgt>
<wgt id='1602'>0.22524E+02</wgt>
<wgt id='1700'>0.21395E+02</wgt>
<wgt id='1800'>0.25847E+02</wgt>
<wgt id='1850'>0.30810E+02</wgt>
<wgt id='1900'>0.27186E+02</wgt>
<wgt id='1950'>0.30680E+02</wgt>
</rwgt>
</event>
<event>
      4   9999  2.16956E+01  2.29456E+01 -1.00000E+00  1.58864E-01
      21    -1     0     0   502   512  0.000000000E+00  0.000000000E+00  1.186008101E+02  1.186008101E+02  0.000000000E+00  0.00000E+00  9.000E+00
      21    -1     0     0   501   502  0.000000000E+00  0.000000000E+00 -1.027356694E+02  1.027356694E+02  0.000000000E+00  0.00000E+00  9.000E+00
      25     1     1     2     0     0 -1.041195679E+01  2.044729757E+01 -6.110831103E+01  1.410157904E+02  1.249989065E+02  0.00000E+00  9.000E+00
      21     1     1     2   501   512  1.041195679E+01 -2.044729757E+01  7.697345174E+01  8.032068908E+01  0.000000000E+00  0.00000E+00  9.000E+00
#rwgt            1           1   18.597487310138639                1        5513           0
<rwgt>
<wgt id='1001'>0.21696E+02</wgt>
<wgt id='1002'>0.24183E+02</wgt>
<wgt id='1003'>0.19079E+02</wgt>
<wgt id='1004'>0.18226E+02</wgt>
<wgt id='1005'>0.20190E+02</wgt>
<wgt id='1006'>0.16131E+02</wgt>
<wgt id='1007'>0.26288E+02</wgt>
<wgt id='1008'>0.29531E+02</wgt>
<wgt id='1009'>0.22930E+02</wgt>
<wgt id='2000'>0.21696E+02</wgt>
<wgt id='2001'>0.21671E+02</wgt>
<wgt id='2002'>0.21790E+02</wgt>
<wgt id='2003'>0.21781E+02</wgt>
<wgt id='2004'>0.21720E+02</wgt>
<wgt id='2005'>0.21641E+02</wgt>
<wgt id='2006'>0.21634E+02</wgt>
<wgt id='2007'>0.21606E+02</wgt>
<wgt id='2008'>0.21660E+02</wgt>
<wgt id='2009'>0.21717E+02</wgt>
<wgt id='2010'>0.21678E+02</wgt>
<wgt id='2011'>0.21804E+02</wgt>
<wgt id='2012'>0.21818E+02</wgt>
<wgt id='2013'>0.21894E+02</wgt>
<wgt id='2014'>0.21775E+02</wgt>
<wgt id='2015'>0.21742E+02</wgt>
<wgt id='2016'>0.21644E+02</wgt>
<wgt id='2017'>0.21694E+02</wgt>
<wgt id='2018'>0.21777E+02</wgt>
<wgt id='2019'>0.21685E+02</wgt>
<wgt id='2020'>0.21752E+02</wgt>
<wgt id='2021'>0.21666E+02</wgt>
<wgt id='2022'>0.21709E+02</wgt>
<wgt id='2023'>0.21713E+02</wgt>
<wgt id='2024'>0.21708E+02</wgt>
<wgt id='2025'>0.21701E+02</wgt>
<wgt id='2026'>0.21696E+02</wgt>
<wgt id='2027'>0.21686E+02</wgt>
<wgt id='2028'>0.21690E+02</wgt>
<wgt id='2029'>0.21714E+02</wgt>
<wgt id='2030'>0.21702E+02</wgt>
<wgt id='2031'>0.21701E+02</wgt>
<wgt id='2032'>0.21697E+02</wgt>
<wgt id='2033'>0.21700E+02</wgt>
<wgt id='2034'>0.21703E+02</wgt>
<wgt id='2035'>0.21692E+02</wgt>
<wgt id='2036'>0.21696E+02</wgt>
<wgt id='2037'>0.21702E+02</wgt>
<wgt id='2038'>0.21693E+02</wgt>
<wgt id='2039'>0.21688E+02</wgt>
<wgt id='2040'>0.21693E+02</wgt>
<wgt id='2041'>0.21693E+02</wgt>
<wgt id='2042'>0.21690E+02</wgt>
<wgt id='2043'>0.21694E+02</wgt>
<wgt id='2044'>0.21702E+02</wgt>
<wgt id='2045'>0.21694E+02</wgt>
<wgt id='2046'>0.21703E+02</wgt>
<wgt id='2047'>0.21701E+02</wgt>
<wgt id='2048'>0.21693E+02</wgt>
<wgt id='2049'>0.21695E+02</wgt>
<wgt id='2050'>0.21701E+02</wgt>
<wgt id='2051'>0.21702E+02</wgt>
<wgt id='2052'>0.21695E+02</wgt>
<wgt id='2053'>0.21698E+02</wgt>
<wgt id='2054'>0.21697E+02</wgt>
<wgt id='2055'>0.21695E+02</wgt>
<wgt id='2056'>0.21696E+02</wgt>
<wgt id='2057'>0.21699E+02</wgt>
<wgt id='2058'>0.21700E+02</wgt>
<wgt id='2059'>0.21693E+02</wgt>
<wgt id='2060'>0.21698E+02</wgt>
<wgt id='2061'>0.21691E+02</wgt>
<wgt id='2062'>0.21693E+02</wgt>
<wgt id='2063'>0.21698E+02</wgt>
<wgt id='2064'>0.21690E+02</wgt>
<wgt id='2065'>0.21695E+02</wgt>
<wgt id='2066'>0.21690E+02</wgt>
<wgt id='2067'>0.21696E+02</wgt>
<wgt id='2068'>0.21696E+02</wgt>
<wgt id='2069'>0.21694E+02</wgt>
<wgt id='2070'>0.21695E+02</wgt>
<wgt id='2071'>0.21689E+02</wgt>
<wgt id='2072'>0.21697E+02</wgt>
<wgt id='2073'>0.21695E+02</wgt>
<wgt id='2074'>0.21692E+02</wgt>
<wgt id='2075'>0.21695E+02</wgt>
<wgt id='2076'>0.21694E+02</wgt>
<wgt id='2077'>0.21694E+02</wgt>
<wgt id='2078'>0.21698E+02</wgt>
<wgt id='2079'>0.21697E+02</wgt>
<wgt id='2080'>0.21695E+02</wgt>
<wgt id='2081'>0.21698E+02</wgt>
<wgt id='2082'>0.21695E+02</wgt>
<wgt id='2083'>0.21694E+02</wgt>
<wgt id='2084'>0.21696E+02</wgt>
<wgt id='2085'>0.21697E+02</wgt>
<wgt id='2086'>0.21693E+02</wgt>
<wgt id='2087'>0.21694E+02</wgt>
<wgt id='2088'>0.21697E+02</wgt>
<wgt id='2089'>0.21695E+02</wgt>
<wgt id='2090'>0.21696E+02</wgt>
<wgt id='2091'>0.21695E+02</wgt>
<wgt id='2092'>0.21697E+02</wgt>
<wgt id='2093'>0.21695E+02</wgt>
<wgt id='2094'>0.21698E+02</wgt>
<wgt id='2095'>0.21695E+02</wgt>
<wgt id='2096'>0.21695E+02</wgt>
<wgt id='2097'>0.21697E+02</wgt>
<wgt id='2098'>0.21696E+02</wgt>
<wgt id='2099'>0.21696E+02</wgt>
<wgt id='2100'>0.21695E+02</wgt>
<wgt id='2101'>0.21138E+02</wgt>
<wgt id='2102'>0.22179E+02</wgt>
<wgt id='2104'>0.19142E+02</wgt>
<wgt id='2105'>0.19578E+02</wgt>
<wgt id='2106'>0.20095E+02</wgt>
<wgt id='2107'>0.20661E+02</wgt>
<wgt id='2108'>0.21478E+02</wgt>
<wgt id='2109'>0.22000E+02</wgt>
<wgt id='2110'>0.22668E+02</wgt>
<wgt id='2111'>0.23188E+02</wgt>
<wgt id='3000'>0.22635E+02</wgt>
<wgt id='3001'>0.22719E+02</wgt>
<wgt id='3002'>0.22540E+02</wgt>
<wgt id='3003'>0.22724E+02</wgt>
<wgt id='3004'>0.22685E+02</wgt>
<wgt id='3005'>0.22745E+02</wgt>
<wgt id='3006'>0.22669E+02</wgt>
<wgt id='3007'>0.22684E+02</wgt>
<wgt id='3008'>0.22565E+02</wgt>
<wgt id='3009'>0.22605E+02</wgt>
<wgt id='3010'>0.22547E+02</wgt>
<wgt id='3011'>0.22690E+02</wgt>
<wgt id='3012'>0.22804E+02</wgt>
<wgt id='3013'>0.22446E+02</wgt>
<wgt id='3014'>0.22727E+02</wgt>
<wgt id='3015'>0.22722E+02</wgt>
<wgt id='3016'>0.22645E+02</wgt>
<wgt id='3017'>0.22734E+02</wgt>
<wgt id='3018'>0.22660E+02</wgt>
<wgt id='3019'>0.22560E+02</wgt>
<wgt id='3020'>0.22624E+02</wgt>
<wgt id='3021'>0.22586E+02</wgt>
<wgt id='3022'>0.22631E+02</wgt>
<wgt id='3023'>0.22615E+02</wgt>
<wgt id='3024'>0.22639E+02</wgt>
<wgt id='3025'>0.22639E+02</wgt>
<wgt id='3026'>0.22636E+02</wgt>
<wgt id='3027'>0.22644E+02</wgt>
<wgt id='3028'>0.22626E+02</wgt>
<wgt id='3029'>0.22639E+02</wgt>
<wgt id='3030'>0.22653E+02</wgt>
<wgt id='3031'>0.22643E+02</wgt>
<wgt id='3032'>0.22633E+02</wgt>
<wgt id='3033'>0.22640E+02</wgt>
<wgt id='3034'>0.22637E+02</wgt>
<wgt id='3035'>0.22651E+02</wgt>
<wgt id='3036'>0.22641E+02</wgt>
<wgt id='3037'>0.22634E+02</wgt>
<wgt id='3038'>0.22636E+02</wgt>
<wgt id='3039'>0.22636E+02</wgt>
<wgt id='3040'>0.22629E+02</wgt>
<wgt id='3041'>0.22636E+02</wgt>
<wgt id='3042'>0.22629E+02</wgt>
<wgt id='3043'>0.22629E+02</wgt>
<wgt id='3044'>0.22638E+02</wgt>
<wgt id='3045'>0.22641E+02</wgt>
<wgt id='3046'>0.22640E+02</wgt>
<wgt id='3047'>0.22634E+02</wgt>
<wgt id='3048'>0.22636E+02</wgt>
<wgt id='3049'>0.22633E+02</wgt>
<wgt id='3050'>0.22632E+02</wgt>
<wgt id='3051'>0.22643E+02</wgt>
<wgt id='3052'>0.22631E+02</wgt>
<wgt id='3053'>0.22632E+02</wgt>
<wgt id='3054'>0.22633E+02</wgt>
<wgt id='3055'>0.22630E+02</wgt>
<wgt id='3056'>0.22638E+02</wgt>
<wgt id='3057'>0.22631E+02</wgt>
<wgt id='3058'>0.22630E+02</wgt>
<wgt id='3059'>0.22635E+02</wgt>
<wgt id='3060'>0.22636E+02</wgt>
<wgt id='3061'>0.22637E+02</wgt>
<wgt id='3062'>0.22640E+02</wgt>
<wgt id='3063'>0.22640E+02</wgt>
<wgt id='3064'>0.22633E+02</wgt>
<wgt id='3065'>0.22636E+02</wgt>
<wgt id='3066'>0.22637E+02</wgt>
<wgt id='3067'>0.22630E+02</wgt>
<wgt id='3068'>0.22634E+02</wgt>
<wgt id='3069'>0.22633E+02</wgt>
<wgt id='3070'>0.22636E+02</wgt>
<wgt id='3071'>0.22634E+02</wgt>
<wgt id='3072'>0.22637E+02</wgt>
<wgt id='3073'>0.22631E+02</wgt>
<wgt id='3074'>0.22640E+02</wgt>
<wgt id='3075'>0.22637E+02</wgt>
<wgt id='3076'>0.22631E+02</wgt>
<wgt id='3077'>0.22634E+02</wgt>
<wgt id='3078'>0.22637E+02</wgt>
<wgt id='3079'>0.22633E+02</wgt>
<wgt id='3080'>0.22636E+02</wgt>
<wgt id='3081'>0.22634E+02</wgt>
<wgt id='3082'>0.22634E+02</wgt>
<wgt id='3083'>0.22634E+02</wgt>
<wgt id='3084'>0.22633E+02</wgt>
<wgt id='3085'>0.22633E+02</wgt>
<wgt id='3086'>0.22634E+02</wgt>
<wgt id='3087'>0.22635E+02</wgt>
<wgt id='3088'>0.22635E+02</wgt>
<wgt id='3089'>0.22635E+02</wgt>
<wgt id='3090'>0.22636E+02</wgt>
<wgt id='3091'>0.22634E+02</wgt>
<wgt id='3092'>0.22635E+02</wgt>
<wgt id='3093'>0.22636E+02</wgt>
<wgt id='3094'>0.22637E+02</wgt>
<wgt id='3095'>0.22635E+02</wgt>
<wgt id='3096'>0.22632E+02</wgt>
<wgt id='3097'>0.22633E+02</wgt>
<wgt id='3098'>0.22633E+02</wgt>
<wgt id='3099'>0.22635E+02</wgt>
<wgt id='3100'>0.22636E+02</wgt>
<wgt id='3101'>0.22079E+02</wgt>
<wgt id='3102'>0.23274E+02</wgt>
<wgt id='5000'>0.21106E+02</wgt>
<wgt id='5001'>0.21017E+02</wgt>
<wgt id='5002'>0.21070E+02</wgt>
<wgt id='5003'>0.20960E+02</wgt>
<wgt id='5004'>0.21156E+02</wgt>
<wgt id='5005'>0.20622E+02</wgt>
<wgt id='5006'>0.21453E+02</wgt>
<wgt id='5007'>0.21230E+02</wgt>
<wgt id='5008'>0.20830E+02</wgt>
<wgt id='5009'>0.21371E+02</wgt>
<wgt id='5010'>0.20963E+02</wgt>
<wgt id='5011'>0.21065E+02</wgt>
<wgt id='5012'>0.21092E+02</wgt>
<wgt id='5013'>0.20661E+02</wgt>
<wgt id='5014'>0.21104E+02</wgt>
<wgt id='5015'>0.21269E+02</wgt>
<wgt id='5016'>0.20605E+02</wgt>
<wgt id='5017'>0.21161E+02</wgt>
<wgt id='5018'>0.21046E+02</wgt>
<wgt id='5019'>0.21019E+02</wgt>
<wgt id='5020'>0.21174E+02</wgt>
<wgt id='5021'>0.21181E+02</wgt>
<wgt id='5022'>0.21057E+02</wgt>
<wgt id='5023'>0.21059E+02</wgt>
<wgt id='5024'>0.21152E+02</wgt>
<wgt id='5025'>0.21076E+02</wgt>
<wgt id='5026'>0.21130E+02</wgt>
<wgt id='5027'>0.21331E+02</wgt>
<wgt id='5028'>0.20727E+02</wgt>
<wgt id='5029'>0.20701E+02</wgt>
<wgt id='5030'>0.21349E+02</wgt>
<wgt id='5031'>0.20863E+02</wgt>
<wgt id='5032'>0.21457E+02</wgt>
<wgt id='5033'>0.20938E+02</wgt>
<wgt id='5034'>0.21249E+02</wgt>
<wgt id='5035'>0.20772E+02</wgt>
<wgt id='5036'>0.21375E+02</wgt>
<wgt id='5037'>0.21093E+02</wgt>
<wgt id='5038'>0.21108E+02</wgt>
<wgt id='5039'>0.21459E+02</wgt>
<wgt id='5040'>0.20925E+02</wgt>
<wgt id='5041'>0.20856E+02</wgt>
<wgt id='5042'>0.21151E+02</wgt>
<wgt id='5043'>0.21333E+02</wgt>
<wgt id='5044'>0.20526E+02</wgt>
<wgt id='5045'>0.21752E+02</wgt>
<wgt id='5046'>0.20917E+02</wgt>
<wgt id='5047'>0.21259E+02</wgt>
<wgt id='5048'>0.21200E+02</wgt>
<wgt id='5049'>0.21125E+02</wgt>
<wgt id='5050'>0.21145E+02</wgt>
<wgt id='5051'>0.21171E+02</wgt>
<wgt id='5052'>0.21087E+02</wgt>
<wgt id='5053'>0.20940E+02</wgt>
<wgt id='5054'>0.21628E+02</wgt>
<wgt id='5055'>0.20970E+02</wgt>
<wgt id='5056'>0.21223E+02</wgt>
<wgt id='5060'>0.20619E+02</wgt>
<wgt id='5070'>0.21521E+02</wgt>
<wgt id='4000'>0.22277E+02</wgt>
<wgt id='4001'>0.22302E+02</wgt>
<wgt id='4002'>0.22350E+02</wgt>
<wgt id='4003'>0.22826E+02</wgt>
<wgt id='4004'>0.22030E+02</wgt>
<wgt id='4005'>0.22363E+02</wgt>
<wgt id='4006'>0.22208E+02</wgt>
<wgt id='4007'>0.22543E+02</wgt>
<wgt id='4008'>0.22159E+02</wgt>
<wgt id='4009'>0.21787E+02</wgt>
<wgt id='4010'>0.22660E+02</wgt>
<wgt id='4011'>0.22622E+02</wgt>
<wgt id='4012'>0.22081E+02</wgt>
<wgt id='4013'>0.21422E+02</wgt>
<wgt id='4014'>0.22769E+02</wgt>
<wgt id='4015'>0.22466E+02</wgt>
<wgt id='4016'>0.22152E+02</wgt>
<wgt id='4017'>0.22071E+02</wgt>
<wgt id='4018'>0.22522E+02</wgt>
<wgt id='4019'>0.22567E+02</wgt>
<wgt id='4020'>0.21950E+02</wgt>
<wgt id='4021'>0.22333E+02</wgt>
<wgt id='4022'>0.22154E+02</wgt>
<wgt id='4023'>0.22159E+02</wgt>
<wgt id='4024'>0.22381E+02</wgt>
<wgt id='4025'>0.21943E+02</wgt>
<wgt id='4026'>0.22582E+02</wgt>
<wgt id='4027'>0.22197E+02</wgt>
<wgt id='4028'>0.22384E+02</wgt>
<wgt id='4029'>0.22106E+02</wgt>
<wgt id='4030'>0.22335E+02</wgt>
<wgt id='4031'>0.22310E+02</wgt>
<wgt id='4032'>0.22232E+02</wgt>
<wgt id='4033'>0.22265E+02</wgt>
<wgt id='4034'>0.22296E+02</wgt>
<wgt id='4035'>0.22621E+02</wgt>
<wgt id='4036'>0.21945E+02</wgt>
<wgt id='4037'>0.22469E+02</wgt>
<wgt id='4038'>0.21954E+02</wgt>
<wgt id='4039'>0.22265E+02</wgt>
<wgt id='4040'>0.22241E+02</wgt>
<wgt id='4041'>0.22471E+02</wgt>
<wgt id='4042'>0.22096E+02</wgt>
<wgt id='4043'>0.22481E+02</wgt>
<wgt id='4044'>0.22041E+02</wgt>
<wgt id='4045'>0.22012E+02</wgt>
<wgt id='4046'>0.22162E+02</wgt>
<wgt id='4047'>0.21969E+02</wgt>
<wgt id='4048'>0.22531E+02</wgt>
<wgt id='4049'>0.22391E+02</wgt>
<wgt id='4050'>0.21817E+02</wgt>
<wgt id='4051'>0.22228E+02</wgt>
<wgt id='4052'>0.22215E+02</wgt>
<wgt id='4053'>0.21689E+02</wgt>
<wgt id='4054'>0.22435E+02</wgt>
<wgt id='4055'>0.22095E+02</wgt>
<wgt id='4056'>0.22443E+02</wgt>
<wgt id='4060'>0.21677E+02</wgt>
<wgt id='4070'>0.22823E+02</wgt>
<wgt id='4080'>0.21896E+02</wgt>
<wgt id='6000'>0.22649E+02</wgt>
<wgt id='6001'>0.22656E+02</wgt>
<wgt id='6002'>0.22642E+02</wgt>
<wgt id='6003'>0.22659E+02</wgt>
<wgt id='6004'>0.22642E+02</wgt>
<wgt id='6005'>0.22712E+02</wgt>
<wgt id='6006'>0.22591E+02</wgt>
<wgt id='6007'>0.22551E+02</wgt>
<wgt id='6008'>0.22760E+02</wgt>
<wgt id='6009'>0.22716E+02</wgt>
<wgt id='6010'>0.22585E+02</wgt>
<wgt id='6011'>0.22696E+02</wgt>
<wgt id='6012'>0.22545E+02</wgt>
<wgt id='6013'>0.22626E+02</wgt>
<wgt id='6014'>0.22690E+02</wgt>
<wgt id='6015'>0.22578E+02</wgt>
<wgt id='6016'>0.22691E+02</wgt>
<wgt id='6017'>0.22527E+02</wgt>
<wgt id='6018'>0.22795E+02</wgt>
<wgt id='6019'>0.22688E+02</wgt>
<wgt id='6020'>0.22615E+02</wgt>
<wgt id='6021'>0.22598E+02</wgt>
<wgt id='6022'>0.22717E+02</wgt>
<wgt id='6023'>0.22492E+02</wgt>
<wgt id='6024'>0.22758E+02</wgt>
<wgt id='6025'>0.22375E+02</wgt>
<wgt id='6026'>0.22894E+02</wgt>
<wgt id='6027'>0.22708E+02</wgt>
<wgt id='6028'>0.22651E+02</wgt>
<wgt id='6029'>0.22791E+02</wgt>
<wgt id='6030'>0.22484E+02</wgt>
<wgt id='6031'>0.22679E+02</wgt>
<wgt id='6032'>0.22610E+02</wgt>
<wgt id='6033'>0.22692E+02</wgt>
<wgt id='6034'>0.22604E+02</wgt>
<wgt id='6035'>0.22634E+02</wgt>
<wgt id='6036'>0.22728E+02</wgt>
<wgt id='6037'>0.22690E+02</wgt>
<wgt id='6038'>0.22644E+02</wgt>
<wgt id='6039'>0.22630E+02</wgt>
<wgt id='6040'>0.22670E+02</wgt>
<wgt id='6041'>0.22604E+02</wgt>
<wgt id='6042'>0.22705E+02</wgt>
<wgt id='6043'>0.22932E+02</wgt>
<wgt id='6044'>0.22504E+02</wgt>
<wgt id='6045'>0.22631E+02</wgt>
<wgt id='6046'>0.22698E+02</wgt>
<wgt id='6047'>0.22585E+02</wgt>
<wgt id='6048'>0.22528E+02</wgt>
<wgt id='6049'>0.22621E+02</wgt>
<wgt id='6050'>0.22649E+02</wgt>
<wgt id='7000'>0.21236E+02</wgt>
<wgt id='7001'>0.21226E+02</wgt>
<wgt id='7002'>0.21250E+02</wgt>
<wgt id='7003'>0.21301E+02</wgt>
<wgt id='7004'>0.21171E+02</wgt>
<wgt id='7005'>0.21277E+02</wgt>
<wgt id='7006'>0.21220E+02</wgt>
<wgt id='7007'>0.21150E+02</wgt>
<wgt id='7008'>0.21322E+02</wgt>
<wgt id='7009'>0.21269E+02</wgt>
<wgt id='7010'>0.21203E+02</wgt>
<wgt id='7011'>0.21041E+02</wgt>
<wgt id='7012'>0.21322E+02</wgt>
<wgt id='7013'>0.21239E+02</wgt>
<wgt id='7014'>0.21233E+02</wgt>
<wgt id='7015'>0.21179E+02</wgt>
<wgt id='7016'>0.21299E+02</wgt>
<wgt id='7017'>0.21196E+02</wgt>
<wgt id='7018'>0.21258E+02</wgt>
<wgt id='7019'>0.21207E+02</wgt>
<wgt id='7020'>0.21276E+02</wgt>
<wgt id='7021'>0.21231E+02</wgt>
<wgt id='7022'>0.21239E+02</wgt>
<wgt id='7023'>0.21478E+02</wgt>
<wgt id='7024'>0.21003E+02</wgt>
<wgt id='7025'>0.21331E+02</wgt>
<wgt id='7026'>0.21006E+02</wgt>
<wgt id='7027'>0.21329E+02</wgt>
<wgt id='7028'>0.21194E+02</wgt>
<wgt id='7029'>0.21138E+02</wgt>
<wgt id='7030'>0.21497E+02</wgt>
<wgt id='7031'>0.21234E+02</wgt>
<wgt id='7032'>0.21244E+02</wgt>
<wgt id='7033'>0.21207E+02</wgt>
<wgt id='7034'>0.21305E+02</wgt>
<wgt id='7035'>0.21294E+02</wgt>
<wgt id='7036'>0.21220E+02</wgt>
<wgt id='7037'>0.21246E+02</wgt>
<wgt id='7038'>0.21236E+02</wgt>
<wgt id='7039'>0.21218E+02</wgt>
<wgt id='7040'>0.21249E+02</wgt>
<wgt id='7041'>0.21195E+02</wgt>
<wgt id='7042'>0.21260E+02</wgt>
<wgt id='7043'>0.21256E+02</wgt>
<wgt id='7044'>0.21128E+02</wgt>
<wgt id='7045'>0.21065E+02</wgt>
<wgt id='7046'>0.21272E+02</wgt>
<wgt id='7047'>0.21244E+02</wgt>
<wgt id='7048'>0.21224E+02</wgt>
<wgt id='7049'>0.21218E+02</wgt>
<wgt id='7050'>0.21179E+02</wgt>
<wgt id='7060'>0.32711E+02</wgt>
<wgt id='8000'>0.21514E+02</wgt>
<wgt id='8001'>0.21508E+02</wgt>
<wgt id='8002'>0.21520E+02</wgt>
<wgt id='8003'>0.21516E+02</wgt>
<wgt id='8004'>0.21513E+02</wgt>
<wgt id='8005'>0.21463E+02</wgt>
<wgt id='8006'>0.21500E+02</wgt>
<wgt id='8007'>0.21485E+02</wgt>
<wgt id='8008'>0.21551E+02</wgt>
<wgt id='8009'>0.21592E+02</wgt>
<wgt id='8010'>0.21514E+02</wgt>
<wgt id='8011'>0.21502E+02</wgt>
<wgt id='8012'>0.21490E+02</wgt>
<wgt id='8013'>0.21510E+02</wgt>
<wgt id='8014'>0.21500E+02</wgt>
<wgt id='8015'>0.21498E+02</wgt>
<wgt id='8016'>0.21519E+02</wgt>
<wgt id='8017'>0.21513E+02</wgt>
<wgt id='8018'>0.21510E+02</wgt>
<wgt id='8019'>0.21552E+02</wgt>
<wgt id='8020'>0.21440E+02</wgt>
<wgt id='8021'>0.21516E+02</wgt>
<wgt id='8022'>0.21378E+02</wgt>
<wgt id='8023'>0.21541E+02</wgt>
<wgt id='8024'>0.21565E+02</wgt>
<wgt id='8025'>0.21592E+02</wgt>
<wgt id='8026'>0.21559E+02</wgt>
<wgt id='8027'>0.21475E+02</wgt>
<wgt id='8028'>0.21534E+02</wgt>
<wgt id='8029'>0.21365E+02</wgt>
<wgt id='8500'>0.22366E+02</wgt>
<wgt id='8501'>0.22321E+02</wgt>
<wgt id='8502'>0.22586E+02</wgt>
<wgt id='8503'>0.22521E+02</wgt>
<wgt id='8504'>0.22311E+02</wgt>
<wgt id='8505'>0.22259E+02</wgt>
<wgt id='8506'>0.22304E+02</wgt>
<wgt id='8507'>0.22500E+02</wgt>
<wgt id='8508'>0.22696E+02</wgt>
<wgt id='8509'>0.22223E+02</wgt>
<wgt id='8510'>0.22695E+02</wgt>
<wgt id='8511'>0.22381E+02</wgt>
<wgt id='8512'>0.22105E+02</wgt>
<wgt id='8513'>0.22396E+02</wgt>
<wgt id='8514'>0.22272E+02</wgt>
<wgt id='8515'>0.22372E+02</wgt>
<wgt id='8516'>0.22436E+02</wgt>
<wgt id='8517'>0.22330E+02</wgt>
<wgt id='8518'>0.22305E+02</wgt>
<wgt id='8519'>0.22305E+02</wgt>
<wgt id='8520'>0.22385E+02</wgt>
<wgt id='8521'>0.22271E+02</wgt>
<wgt id='8522'>0.22377E+02</wgt>
<wgt id='8523'>0.22329E+02</wgt>
<wgt id='8524'>0.22364E+02</wgt>
<wgt id='8525'>0.22342E+02</wgt>
<wgt id='8526'>0.22333E+02</wgt>
<wgt id='8527'>0.22365E+02</wgt>
<wgt id='8528'>0.22309E+02</wgt>
<wgt id='8529'>0.22352E+02</wgt>
<wgt id='8530'>0.22366E+02</wgt>
<wgt id='8531'>0.22358E+02</wgt>
<wgt id='8532'>0.22369E+02</wgt>
<wgt id='8533'>0.22321E+02</wgt>
<wgt id='8534'>0.22376E+02</wgt>
<wgt id='8535'>0.22415E+02</wgt>
<wgt id='8536'>0.22350E+02</wgt>
<wgt id='8537'>0.22374E+02</wgt>
<wgt id='8538'>0.22344E+02</wgt>
<wgt id='8539'>0.22370E+02</wgt>
<wgt id='8540'>0.22370E+02</wgt>
<wgt id='8541'>0.22377E+02</wgt>
<wgt id='8542'>0.22383E+02</wgt>
<wgt id='8543'>0.22346E+02</wgt>
<wgt id='8544'>0.22389E+02</wgt>
<wgt id='8545'>0.22384E+02</wgt>
<wgt id='8546'>0.22386E+02</wgt>
<wgt id='8547'>0.22347E+02</wgt>
<wgt id='8548'>0.22344E+02</wgt>
<wgt id='8549'>0.22367E+02</wgt>
<wgt id='8550'>0.22370E+02</wgt>
<wgt id='8551'>0.22344E+02</wgt>
<wgt id='8552'>0.22370E+02</wgt>
<wgt id='8553'>0.22357E+02</wgt>
<wgt id='8554'>0.22356E+02</wgt>
<wgt id='8555'>0.22369E+02</wgt>
<wgt id='8556'>0.22364E+02</wgt>
<wgt id='8557'>0.22361E+02</wgt>
<wgt id='8558'>0.22389E+02</wgt>
<wgt id='8559'>0.22355E+02</wgt>
<wgt id='8560'>0.22342E+02</wgt>
<wgt id='8561'>0.22363E+02</wgt>
<wgt id='8562'>0.22349E+02</wgt>
<wgt id='8563'>0.22367E+02</wgt>
<wgt id='8564'>0.22362E+02</wgt>
<wgt id='8565'>0.22365E+02</wgt>
<wgt id='8566'>0.22362E+02</wgt>
<wgt id='8567'>0.22364E+02</wgt>
<wgt id='8568'>0.22374E+02</wgt>
<wgt id='8569'>0.22372E+02</wgt>
<wgt id='8570'>0.22363E+02</wgt>
<wgt id='8571'>0.22357E+02</wgt>
<wgt id='8572'>0.22360E+02</wgt>
<wgt id='8573'>0.22357E+02</wgt>
<wgt id='8574'>0.22370E+02</wgt>
<wgt id='8575'>0.22363E+02</wgt>
<wgt id='8576'>0.22364E+02</wgt>
<wgt id='8577'>0.22365E+02</wgt>
<wgt id='8578'>0.22368E+02</wgt>
<wgt id='8579'>0.22378E+02</wgt>
<wgt id='8580'>0.22365E+02</wgt>
<wgt id='8581'>0.22369E+02</wgt>
<wgt id='8582'>0.22352E+02</wgt>
<wgt id='8583'>0.22374E+02</wgt>
<wgt id='8584'>0.22371E+02</wgt>
<wgt id='8585'>0.22369E+02</wgt>
<wgt id='8586'>0.22375E+02</wgt>
<wgt id='8587'>0.22363E+02</wgt>
<wgt id='8588'>0.22361E+02</wgt>
<wgt id='8589'>0.22367E+02</wgt>
<wgt id='8590'>0.22364E+02</wgt>
<wgt id='8591'>0.22363E+02</wgt>
<wgt id='8592'>0.22365E+02</wgt>
<wgt id='8593'>0.22358E+02</wgt>
<wgt id='8594'>0.22369E+02</wgt>
<wgt id='8595'>0.22368E+02</wgt>
<wgt id='8596'>0.22361E+02</wgt>
<wgt id='8597'>0.22368E+02</wgt>
<wgt id='8598'>0.22370E+02</wgt>
<wgt id='8599'>0.22368E+02</wgt>
<wgt id='8600'>0.22365E+02</wgt>
<wgt id='8601'>0.21932E+02</wgt>
<wgt id='8602'>0.22741E+02</wgt>
<wgt id='9000'>0.21225E+02</wgt>
<wgt id='9001'>0.21263E+02</wgt>
<wgt id='9002'>0.21334E+02</wgt>
<wgt id='9003'>0.21037E+02</wgt>
<wgt id='9004'>0.21186E+02</wgt>
<wgt id='9005'>0.21332E+02</wgt>
<wgt id='9006'>0.21166E+02</wgt>
<wgt id='9007'>0.21232E+02</wgt>
<wgt id='9008'>0.21270E+02</wgt>
<wgt id='9009'>0.21212E+02</wgt>
<wgt id='9010'>0.21191E+02</wgt>
<wgt id='9011'>0.21454E+02</wgt>
<wgt id='9012'>0.20956E+02</wgt>
<wgt id='9013'>0.20942E+02</wgt>
<wgt id='9014'>0.20979E+02</wgt>
<wgt id='9015'>0.21202E+02</wgt>
<wgt id='9016'>0.21311E+02</wgt>
<wgt id='9017'>0.21238E+02</wgt>
<wgt id='9018'>0.21220E+02</wgt>
<wgt id='9019'>0.21203E+02</wgt>
<wgt id='9020'>0.21313E+02</wgt>
<wgt id='9021'>0.21214E+02</wgt>
<wgt id='9022'>0.21251E+02</wgt>
<wgt id='9023'>0.21196E+02</wgt>
<wgt id='9024'>0.21196E+02</wgt>
<wgt id='9025'>0.21255E+02</wgt>
<wgt id='9026'>0.21235E+02</wgt>
<wgt id='9027'>0.21201E+02</wgt>
<wgt id='9028'>0.21242E+02</wgt>
<wgt id='9029'>0.21246E+02</wgt>
<wgt id='9030'>0.21236E+02</wgt>
<wgt id='9031'>0.21220E+02</wgt>
<wgt id='9032'>0.21239E+02</wgt>
<wgt id='9033'>0.21253E+02</wgt>
<wgt id='9034'>0.21211E+02</wgt>
<wgt id='9035'>0.21261E+02</wgt>
<wgt id='9036'>0.21223E+02</wgt>
<wgt id='9037'>0.21246E+02</wgt>
<wgt id='9038'>0.21225E+02</wgt>
<wgt id='9039'>0.21226E+02</wgt>
<wgt id='9040'>0.21200E+02</wgt>
<wgt id='9041'>0.21215E+02</wgt>
<wgt id='9042'>0.21221E+02</wgt>
<wgt id='9043'>0.21209E+02</wgt>
<wgt id='9044'>0.21232E+02</wgt>
<wgt id='9045'>0.21221E+02</wgt>
<wgt id='9046'>0.21195E+02</wgt>
<wgt id='9047'>0.21214E+02</wgt>
<wgt id='9048'>0.21233E+02</wgt>
<wgt id='9049'>0.21214E+02</wgt>
<wgt id='9050'>0.21231E+02</wgt>
<wgt id='9051'>0.21232E+02</wgt>
<wgt id='9052'>0.21229E+02</wgt>
<wgt id='9053'>0.21228E+02</wgt>
<wgt id='9054'>0.21214E+02</wgt>
<wgt id='9055'>0.21222E+02</wgt>
<wgt id='9056'>0.21246E+02</wgt>
<wgt id='9057'>0.21223E+02</wgt>
<wgt id='9058'>0.21211E+02</wgt>
<wgt id='9059'>0.21216E+02</wgt>
<wgt id='9060'>0.21219E+02</wgt>
<wgt id='9061'>0.21229E+02</wgt>
<wgt id='9062'>0.21229E+02</wgt>
<wgt id='9063'>0.21235E+02</wgt>
<wgt id='9064'>0.21221E+02</wgt>
<wgt id='9065'>0.21224E+02</wgt>
<wgt id='9066'>0.21227E+02</wgt>
<wgt id='9067'>0.21232E+02</wgt>
<wgt id='9068'>0.21232E+02</wgt>
<wgt id='9069'>0.21236E+02</wgt>
<wgt id='9070'>0.21223E+02</wgt>
<wgt id='9071'>0.21237E+02</wgt>
<wgt id='9072'>0.21237E+02</wgt>
<wgt id='9073'>0.21220E+02</wgt>
<wgt id='9074'>0.21228E+02</wgt>
<wgt id='9075'>0.21224E+02</wgt>
<wgt id='9076'>0.21223E+02</wgt>
<wgt id='9077'>0.21228E+02</wgt>
<wgt id='9078'>0.21227E+02</wgt>
<wgt id='9079'>0.21221E+02</wgt>
<wgt id='9080'>0.21239E+02</wgt>
<wgt id='9081'>0.21223E+02</wgt>
<wgt id='9082'>0.21230E+02</wgt>
<wgt id='9083'>0.21219E+02</wgt>
<wgt id='9084'>0.21219E+02</wgt>
<wgt id='9085'>0.21220E+02</wgt>
<wgt id='9086'>0.21228E+02</wgt>
<wgt id='9087'>0.21213E+02</wgt>
<wgt id='9088'>0.21221E+02</wgt>
<wgt id='9089'>0.21220E+02</wgt>
<wgt id='9090'>0.21228E+02</wgt>
<wgt id='9091'>0.21223E+02</wgt>
<wgt id='9092'>0.21224E+02</wgt>
<wgt id='9093'>0.21222E+02</wgt>
<wgt id='9094'>0.21224E+02</wgt>
<wgt id='9095'>0.21227E+02</wgt>
<wgt id='9096'>0.21221E+02</wgt>
<wgt id='9097'>0.21227E+02</wgt>
<wgt id='9098'>0.21225E+02</wgt>
<wgt id='9099'>0.21221E+02</wgt>
<wgt id='9100'>0.21225E+02</wgt>
<wgt id='9101'>0.20897E+02</wgt>
<wgt id='9102'>0.21488E+02</wgt>
<wgt id='10000'>0.22364E+02</wgt>
<wgt id='10001'>0.22463E+02</wgt>
<wgt id='10002'>0.22370E+02</wgt>
<wgt id='10003'>0.22370E+02</wgt>
<wgt id='10004'>0.22443E+02</wgt>
<wgt id='10005'>0.22998E+02</wgt>
<wgt id='10006'>0.22365E+02</wgt>
<wgt id='10007'>0.22359E+02</wgt>
<wgt id='10008'>0.22391E+02</wgt>
<wgt id='10009'>0.22326E+02</wgt>
<wgt id='10010'>0.22369E+02</wgt>
<wgt id='10011'>0.22341E+02</wgt>
<wgt id='10012'>0.22329E+02</wgt>
<wgt id='10013'>0.22358E+02</wgt>
<wgt id='10014'>0.22373E+02</wgt>
<wgt id='10015'>0.22390E+02</wgt>
<wgt id='10016'>0.22373E+02</wgt>
<wgt id='10017'>0.22227E+02</wgt>
<wgt id='10018'>0.22383E+02</wgt>
<wgt id='10019'>0.22324E+02</wgt>
<wgt id='10020'>0.22377E+02</wgt>
<wgt id='10021'>0.22367E+02</wgt>
<wgt id='10022'>0.22358E+02</wgt>
<wgt id='10023'>0.22375E+02</wgt>
<wgt id='10024'>0.22366E+02</wgt>
<wgt id='10025'>0.22351E+02</wgt>
<wgt id='10026'>0.22361E+02</wgt>
<wgt id='10027'>0.22359E+02</wgt>
<wgt id='10028'>0.22403E+02</wgt>
<wgt id='10029'>0.22386E+02</wgt>
<wgt id='10030'>0.22355E+02</wgt>
<wgt id='10031'>0.21932E+02</wgt>
<wgt id='10032'>0.22741E+02</wgt>
<wgt id='11000'>0.21223E+02</wgt>
<wgt id='11001'>0.21237E+02</wgt>
<wgt id='11002'>0.21295E+02</wgt>
<wgt id='11003'>0.21201E+02</wgt>
<wgt id='11004'>0.21291E+02</wgt>
<wgt id='11005'>0.20938E+02</wgt>
<wgt id='11006'>0.21217E+02</wgt>
<wgt id='11007'>0.21179E+02</wgt>
<wgt id='11008'>0.21180E+02</wgt>
<wgt id='11009'>0.21123E+02</wgt>
<wgt id='11010'>0.21282E+02</wgt>
<wgt id='11011'>0.21104E+02</wgt>
<wgt id='11012'>0.21242E+02</wgt>
<wgt id='11013'>0.21305E+02</wgt>
<wgt id='11014'>0.21158E+02</wgt>
<wgt id='11015'>0.21196E+02</wgt>
<wgt id='11016'>0.21202E+02</wgt>
<wgt id='11017'>0.21398E+02</wgt>
<wgt id='11018'>0.21226E+02</wgt>
<wgt id='11019'>0.21219E+02</wgt>
<wgt id='11020'>0.21245E+02</wgt>
<wgt id='11021'>0.21294E+02</wgt>
<wgt id='11022'>0.21639E+02</wgt>
<wgt id='11023'>0.21213E+02</wgt>
<wgt id='11024'>0.21204E+02</wgt>
<wgt id='11025'>0.21169E+02</wgt>
<wgt id='11026'>0.21221E+02</wgt>
<wgt id='11027'>0.21219E+02</wgt>
<wgt id='11028'>0.21212E+02</wgt>
<wgt id='11029'>0.21209E+02</wgt>
<wgt id='11030'>0.21227E+02</wgt>
<wgt id='11031'>0.20897E+02</wgt>
<wgt id='11032'>0.21488E+02</wgt>
<wgt id='12000'>0.23728E+02</wgt>
<wgt id='12001'>0.23697E+02</wgt>
<wgt id='12002'>0.23760E+02</wgt>
<wgt id='12003'>0.23787E+02</wgt>
<wgt id='12004'>0.23670E+02</wgt>
<wgt id='12005'>0.23768E+02</wgt>
<wgt id='12006'>0.23689E+02</wgt>
<wgt id='12007'>0.23792E+02</wgt>
<wgt id='12008'>0.23667E+02</wgt>
<wgt id='12009'>0.23767E+02</wgt>
<wgt id='12010'>0.23690E+02</wgt>
<wgt id='12011'>0.23691E+02</wgt>
<wgt id='12012'>0.23769E+02</wgt>
<wgt id='12013'>0.23634E+02</wgt>
<wgt id='12014'>0.23823E+02</wgt>
<wgt id='12015'>0.23732E+02</wgt>
<wgt id='12016'>0.23693E+02</wgt>
<wgt id='12017'>0.23799E+02</wgt>
<wgt id='12018'>0.23649E+02</wgt>
<wgt id='12019'>0.23642E+02</wgt>
<wgt id='12020'>0.23812E+02</wgt>
<wgt id='12021'>0.23822E+02</wgt>
<wgt id='12022'>0.23608E+02</wgt>
<wgt id='12023'>0.23642E+02</wgt>
<wgt id='12024'>0.23696E+02</wgt>
<wgt id='12025'>0.23801E+02</wgt>
<wgt id='12026'>0.23690E+02</wgt>
<wgt id='12027'>0.23693E+02</wgt>
<wgt id='12028'>0.23784E+02</wgt>
<wgt id='12050'>0.23728E+02</wgt>
<wgt id='12051'>0.23706E+02</wgt>
<wgt id='12052'>0.23744E+02</wgt>
<wgt id='12053'>0.23700E+02</wgt>
<wgt id='12054'>0.23739E+02</wgt>
<wgt id='12055'>0.23796E+02</wgt>
<wgt id='12056'>0.23541E+02</wgt>
<wgt id='12057'>0.23634E+02</wgt>
<wgt id='12058'>0.23816E+02</wgt>
<wgt id='12059'>0.23669E+02</wgt>
<wgt id='12060'>0.23793E+02</wgt>
<wgt id='12061'>0.23730E+02</wgt>
<wgt id='12062'>0.23773E+02</wgt>
<wgt id='12063'>0.23497E+02</wgt>
<wgt id='13000'>0.21403E+02</wgt>
<wgt id='13001'>0.21386E+02</wgt>
<wgt id='13002'>0.21416E+02</wgt>
<wgt id='13003'>0.21429E+02</wgt>
<wgt id='13004'>0.21373E+02</wgt>
<wgt id='13005'>0.21453E+02</wgt>
<wgt id='13006'>0.21349E+02</wgt>
<wgt id='13007'>0.21492E+02</wgt>
<wgt id='13008'>0.21313E+02</wgt>
<wgt id='13009'>0.21407E+02</wgt>
<wgt id='13010'>0.21397E+02</wgt>
<wgt id='13011'>0.21453E+02</wgt>
<wgt id='13012'>0.21349E+02</wgt>
<wgt id='13013'>0.21337E+02</wgt>
<wgt id='13014'>0.21466E+02</wgt>
<wgt id='13015'>0.21367E+02</wgt>
<wgt id='13016'>0.21418E+02</wgt>
<wgt id='13017'>0.21387E+02</wgt>
<wgt id='13018'>0.21410E+02</wgt>
<wgt id='13019'>0.21364E+02</wgt>
<wgt id='13020'>0.21437E+02</wgt>
<wgt id='13021'>0.21223E+02</wgt>
<wgt id='13022'>0.21549E+02</wgt>
<wgt id='13023'>0.21415E+02</wgt>
<wgt id='13024'>0.21385E+02</wgt>
<wgt id='13025'>0.21357E+02</wgt>
<wgt id='13026'>0.21393E+02</wgt>
<wgt id='13027'>0.21414E+02</wgt>
<wgt id='13028'>0.21411E+02</wgt>
<wgt id='13050'>0.21403E+02</wgt>
<wgt id='13051'>0.21406E+02</wgt>
<wgt id='13052'>0.21355E+02</wgt>
<wgt id='13053'>0.21397E+02</wgt>
<wgt id='13054'>0.21394E+02</wgt>
<wgt id='13055'>0.21380E+02</wgt>
<wgt id='13056'>0.21407E+02</wgt>
<wgt id='13057'>0.21326E+02</wgt>
<wgt id='13058'>0.21513E+02</wgt>
<wgt id='13059'>0.21343E+02</wgt>
<wgt id='13060'>0.21469E+02</wgt>
<wgt id='13061'>0.21349E+02</wgt>
<wgt id='13062'>0.21559E+02</wgt>
<wgt id='13063'>0.21260E+02</wgt>
<wgt id='14000'>0.22173E+02</wgt>
<wgt id='14001'>0.22169E+02</wgt>
<wgt id='14002'>0.22165E+02</wgt>
<wgt id='14003'>0.22162E+02</wgt>
<wgt id='14004'>0.22158E+02</wgt>
<wgt id='14005'>0.22155E+02</wgt>
<wgt id='14006'>0.22151E+02</wgt>
<wgt id='14007'>0.22148E+02</wgt>
<wgt id='14008'>0.22144E+02</wgt>
<wgt id='14009'>0.22140E+02</wgt>
<wgt id='14010'>0.22137E+02</wgt>
<wgt id='14011'>0.22133E+02</wgt>
<wgt id='14012'>0.22129E+02</wgt>
<wgt id='14013'>0.22126E+02</wgt>
<wgt id='14014'>0.22122E+02</wgt>
<wgt id='14015'>0.22119E+02</wgt>
<wgt id='14016'>0.22115E+02</wgt>
<wgt id='14017'>0.22111E+02</wgt>
<wgt id='14018'>0.22108E+02</wgt>
<wgt id='14019'>0.22104E+02</wgt>
<wgt id='14020'>0.22101E+02</wgt>
<wgt id='14021'>0.22097E+02</wgt>
<wgt id='14022'>0.22094E+02</wgt>
<wgt id='14023'>0.22090E+02</wgt>
<wgt id='14024'>0.22086E+02</wgt>
<wgt id='14025'>0.22083E+02</wgt>
<wgt id='14026'>0.22079E+02</wgt>
<wgt id='14027'>0.22076E+02</wgt>
<wgt id='14028'>0.22072E+02</wgt>
<wgt id='14029'>0.22068E+02</wgt>
<wgt id='14030'>0.22065E+02</wgt>
<wgt id='15000'>0.20971E+02</wgt>
<wgt id='15001'>0.21008E+02</wgt>
<wgt id='15002'>0.21078E+02</wgt>
<wgt id='15003'>0.20787E+02</wgt>
<wgt id='15004'>0.20933E+02</wgt>
<wgt id='15005'>0.21077E+02</wgt>
<wgt id='15006'>0.20914E+02</wgt>
<wgt id='15007'>0.20978E+02</wgt>
<wgt id='15008'>0.21016E+02</wgt>
<wgt id='15009'>0.20959E+02</wgt>
<wgt id='15010'>0.20939E+02</wgt>
<wgt id='15011'>0.21198E+02</wgt>
<wgt id='15012'>0.20706E+02</wgt>
<wgt id='15013'>0.20693E+02</wgt>
<wgt id='15014'>0.20728E+02</wgt>
<wgt id='15015'>0.20946E+02</wgt>
<wgt id='15016'>0.21057E+02</wgt>
<wgt id='15017'>0.20984E+02</wgt>
<wgt id='15018'>0.20966E+02</wgt>
<wgt id='15019'>0.20950E+02</wgt>
<wgt id='15020'>0.21059E+02</wgt>
<wgt id='15021'>0.20958E+02</wgt>
<wgt id='15022'>0.20997E+02</wgt>
<wgt id='15023'>0.20942E+02</wgt>
<wgt id='15024'>0.20941E+02</wgt>
<wgt id='15025'>0.21000E+02</wgt>
<wgt id='15026'>0.20980E+02</wgt>
<wgt id='15027'>0.20948E+02</wgt>
<wgt id='15028'>0.20989E+02</wgt>
<wgt id='15029'>0.20991E+02</wgt>
<wgt id='15030'>0.20982E+02</wgt>
<wgt id='15031'>0.20968E+02</wgt>
<wgt id='15032'>0.20985E+02</wgt>
<wgt id='15033'>0.20998E+02</wgt>
<wgt id='15034'>0.20958E+02</wgt>
<wgt id='15035'>0.21007E+02</wgt>
<wgt id='15036'>0.20969E+02</wgt>
<wgt id='15037'>0.20992E+02</wgt>
<wgt id='15038'>0.20971E+02</wgt>
<wgt id='15039'>0.20972E+02</wgt>
<wgt id='15040'>0.20946E+02</wgt>
<wgt id='15041'>0.20961E+02</wgt>
<wgt id='15042'>0.20966E+02</wgt>
<wgt id='15043'>0.20956E+02</wgt>
<wgt id='15044'>0.20978E+02</wgt>
<wgt id='15045'>0.20967E+02</wgt>
<wgt id='15046'>0.20942E+02</wgt>
<wgt id='15047'>0.20959E+02</wgt>
<wgt id='15048'>0.20979E+02</wgt>
<wgt id='15049'>0.20960E+02</wgt>
<wgt id='15050'>0.20977E+02</wgt>
<wgt id='15051'>0.20978E+02</wgt>
<wgt id='15052'>0.20976E+02</wgt>
<wgt id='15053'>0.20974E+02</wgt>
<wgt id='15054'>0.20960E+02</wgt>
<wgt id='15055'>0.20968E+02</wgt>
<wgt id='15056'>0.20991E+02</wgt>
<wgt id='15057'>0.20969E+02</wgt>
<wgt id='15058'>0.20957E+02</wgt>
<wgt id='15059'>0.20962E+02</wgt>
<wgt id='15060'>0.20965E+02</wgt>
<wgt id='15061'>0.20975E+02</wgt>
<wgt id='15062'>0.20975E+02</wgt>
<wgt id='15063'>0.20981E+02</wgt>
<wgt id='15064'>0.20967E+02</wgt>
<wgt id='15065'>0.20971E+02</wgt>
<wgt id='15066'>0.20973E+02</wgt>
<wgt id='15067'>0.20978E+02</wgt>
<wgt id='15068'>0.20978E+02</wgt>
<wgt id='15069'>0.20982E+02</wgt>
<wgt id='15070'>0.20969E+02</wgt>
<wgt id='15071'>0.20984E+02</wgt>
<wgt id='15072'>0.20984E+02</wgt>
<wgt id='15073'>0.20966E+02</wgt>
<wgt id='15074'>0.20975E+02</wgt>
<wgt id='15075'>0.20970E+02</wgt>
<wgt id='15076'>0.20970E+02</wgt>
<wgt id='15077'>0.20974E+02</wgt>
<wgt id='15078'>0.20973E+02</wgt>
<wgt id='15079'>0.20968E+02</wgt>
<wgt id='15080'>0.20985E+02</wgt>
<wgt id='15081'>0.20969E+02</wgt>
<wgt id='15082'>0.20976E+02</wgt>
<wgt id='15083'>0.20965E+02</wgt>
<wgt id='15084'>0.20966E+02</wgt>
<wgt id='15085'>0.20966E+02</wgt>
<wgt id='15086'>0.20974E+02</wgt>
<wgt id='15087'>0.20959E+02</wgt>
<wgt id='15088'>0.20967E+02</wgt>
<wgt id='15089'>0.20967E+02</wgt>
<wgt id='15090'>0.20974E+02</wgt>
<wgt id='15091'>0.20969E+02</wgt>
<wgt id='15092'>0.20971E+02</wgt>
<wgt id='15093'>0.20968E+02</wgt>
<wgt id='15094'>0.20970E+02</wgt>
<wgt id='15095'>0.20974E+02</wgt>
<wgt id='15096'>0.20967E+02</wgt>
<wgt id='15097'>0.20973E+02</wgt>
<wgt id='15098'>0.20971E+02</wgt>
<wgt id='15099'>0.20967E+02</wgt>
<wgt id='15100'>0.20971E+02</wgt>
<wgt id='15101'>0.20971E+02</wgt>
<wgt id='15102'>0.20970E+02</wgt>
<wgt id='15103'>0.20972E+02</wgt>
<wgt id='15104'>0.20972E+02</wgt>
<wgt id='15105'>0.20972E+02</wgt>
<wgt id='15106'>0.20971E+02</wgt>
<wgt id='15107'>0.20970E+02</wgt>
<wgt id='1500'>0.22158E+02</wgt>
<wgt id='1501'>0.20221E+02</wgt>
<wgt id='1502'>0.22296E+02</wgt>
<wgt id='1503'>0.22024E+02</wgt>
<wgt id='1504'>0.21895E+02</wgt>
<wgt id='1505'>0.19432E+02</wgt>
<wgt id='1506'>0.22201E+02</wgt>
<wgt id='1507'>0.22517E+02</wgt>
<wgt id='1508'>0.22035E+02</wgt>
<wgt id='1509'>0.22150E+02</wgt>
<wgt id='1510'>0.21539E+02</wgt>
<wgt id='1511'>0.21868E+02</wgt>
<wgt id='1512'>0.22546E+02</wgt>
<wgt id='1513'>0.22540E+02</wgt>
<wgt id='1514'>0.21578E+02</wgt>
<wgt id='1515'>0.22209E+02</wgt>
<wgt id='1516'>0.22556E+02</wgt>
<wgt id='1517'>0.21799E+02</wgt>
<wgt id='1518'>0.21940E+02</wgt>
<wgt id='1519'>0.22382E+02</wgt>
<wgt id='1520'>0.22433E+02</wgt>
<wgt id='1521'>0.22268E+02</wgt>
<wgt id='1522'>0.22027E+02</wgt>
<wgt id='1523'>0.23881E+02</wgt>
<wgt id='1524'>0.21954E+02</wgt>
<wgt id='1525'>0.22492E+02</wgt>
<wgt id='1526'>0.21723E+02</wgt>
<wgt id='1527'>0.21970E+02</wgt>
<wgt id='1528'>0.22018E+02</wgt>
<wgt id='1529'>0.21864E+02</wgt>
<wgt id='1530'>0.22584E+02</wgt>
<wgt id='1531'>0.22070E+02</wgt>
<wgt id='1532'>0.21567E+02</wgt>
<wgt id='1533'>0.22693E+02</wgt>
<wgt id='1534'>0.22322E+02</wgt>
<wgt id='1535'>0.22846E+02</wgt>
<wgt id='1536'>0.22829E+02</wgt>
<wgt id='1537'>0.22405E+02</wgt>
<wgt id='1538'>0.21955E+02</wgt>
<wgt id='1539'>0.21307E+02</wgt>
<wgt id='1540'>0.22502E+02</wgt>
<wgt id='1541'>0.22067E+02</wgt>
<wgt id='1542'>0.22536E+02</wgt>
<wgt id='1543'>0.22423E+02</wgt>
<wgt id='1544'>0.21983E+02</wgt>
<wgt id='1545'>0.22576E+02</wgt>
<wgt id='1546'>0.22302E+02</wgt>
<wgt id='1547'>0.21788E+02</wgt>
<wgt id='1548'>0.21731E+02</wgt>
<wgt id='1549'>0.22376E+02</wgt>
<wgt id='1550'>0.22246E+02</wgt>
<wgt id='1551'>0.22169E+02</wgt>
<wgt id='1552'>0.22104E+02</wgt>
<wgt id='1553'>0.22555E+02</wgt>
<wgt id='1554'>0.22168E+02</wgt>
<wgt id='1555'>0.22226E+02</wgt>
<wgt id='1556'>0.21541E+02</wgt>
<wgt id='1557'>0.23069E+02</wgt>
<wgt id='1558'>0.21982E+02</wgt>
<wgt id='1559'>0.22440E+02</wgt>
<wgt id='1560'>0.22088E+02</wgt>
<wgt id='1561'>0.22413E+02</wgt>
<wgt id='1562'>0.22199E+02</wgt>
<wgt id='1563'>0.22588E+02</wgt>
<wgt id='1564'>0.21879E+02</wgt>
<wgt id='1565'>0.22485E+02</wgt>
<wgt id='1566'>0.22253E+02</wgt>
<wgt id='1567'>0.23219E+02</wgt>
<wgt id='1568'>0.21857E+02</wgt>
<wgt id='1569'>0.21650E+02</wgt>
<wgt id='1570'>0.22235E+02</wgt>
<wgt id='1571'>0.22734E+02</wgt>
<wgt id='1572'>0.21988E+02</wgt>
<wgt id='1573'>0.20463E+02</wgt>
<wgt id='1574'>0.22370E+02</wgt>
<wgt id='1575'>0.21938E+02</wgt>
<wgt id='1576'>0.21578E+02</wgt>
<wgt id='1577'>0.22355E+02</wgt>
<wgt id='1578'>0.23038E+02</wgt>
<wgt id='1579'>0.22055E+02</wgt>
<wgt id='1580'>0.22337E+02</wgt>
<wgt id='1581'>0.22307E+02</wgt>
<wgt id='1582'>0.21916E+02</wgt>
<wgt id='1583'>0.22199E+02</wgt>
<wgt id='1584'>0.22249E+02</wgt>
<wgt id='1585'>0.21530E+02</wgt>
<wgt id='1586'>0.22095E+02</wgt>
<wgt id='1587'>0.22113E+02</wgt>
<wgt id='1588'>0.22204E+02</wgt>
<wgt id='1589'>0.22591E+02</wgt>
<wgt id='1590'>0.22065E+02</wgt>
<wgt id='1591'>0.21501E+02</wgt>
<wgt id='1592'>0.22743E+02</wgt>
<wgt id='1593'>0.21971E+02</wgt>
<wgt id='1594'>0.22717E+02</wgt>
<wgt id='1595'>0.21782E+02</wgt>
<wgt id='1596'>0.22507E+02</wgt>
<wgt id='1597'>0.22284E+02</wgt>
<wgt id='1598'>0.23130E+02</wgt>
<wgt id='1599'>0.22783E+02</wgt>
<wgt id='1600'>0.22039E+02</wgt>
<wgt id='1601'>0.21791E+02</wgt>
<wgt id='1602'>0.22330E+02</wgt>
<wgt id='1700'>0.21322E+02</wgt>
<wgt id='1800'>0.25996E+02</wgt>
<wgt id='1850'>0.31262E+02</wgt>
<wgt id='1900'>0.25510E+02</wgt>
<wgt id='1950'>0.30219E+02</wgt>
</rwgt>
</event>
<event>
      4   9999  2.16956E+01  1.05470E+01 -1.00000E+00  1.89190E-01
      21    -1     0     0   511   501  0.000000000E+00  0.000000000E+00  1.249712183E+02  1.249712183E+02  0.000000000E+00  0.00000E+00  9.000E+00
      21    -1     0     0   501   502  0.000000000E+00  0.000000000E+00 -4.065370992E+02  4.065370992E+02  0.000000000E+00  0.00000E+00  9.000E+00
      25     1     1     2     0     0  8.882655610E+00  5.686664395E+00 -3.966129612E+02  4.159787957E+02  1.250011110E+02  0.00000E+00  9.000E+00
      21     1     1     2   511   502 -8.882655610E+00 -5.686664395E+00  1.150470803E+02  1.155295218E+02  2.697398305E-06  0.00000E+00  9.000E+00
#rwgt            1           1   23.779486929035496                1        5623           0
<rwgt>
<wgt id='1001'>0.21696E+02</wgt>
<wgt id='1002'>0.18724E+02</wgt>
<wgt id='1003'>0.24820E+02</wgt>
<wgt id='1004'>0.18583E+02</wgt>
<wgt id='1005'>0.16409E+02</wgt>
<wgt id='1006'>0.20836E+02</wgt>
<wgt id='1007'>0.25641E+02</wgt>
<wgt id='1008'>0.21458E+02</wgt>
<wgt id='1009'>0.30100E+02</wgt>
<wgt id='2000'>0.21696E+02</wgt>
<wgt id='2001'>0.21673E+02</wgt>
<wgt id='2002'>0.21719E+02</wgt>
<wgt id='2003'>0.21700E+02</wgt>
<wgt id='2004'>0.21718E+02</wgt>
<wgt id='2005'>0.21699E+02</wgt>
<wgt id='2006'>0.21676E+02</wgt>
<wgt id='2007'>0.21707E+02</wgt>
<wgt id='2008'>0.21725E+02</wgt>
<wgt id='2009'>0.21680E+02</wgt>
<wgt id='2010'>0.21666E+02</wgt>
<wgt id='2011'>0.21708E+02</wgt>
<wgt id='2012'>0.21713E+02</wgt>
<wgt id='2013'>0.21689E+02</wgt>
<wgt id='2014'>0.21692E+02</wgt>
<wgt id='2015'>0.21708E+02</wgt>
<wgt id='2016'>0.21712E+02</wgt>
<wgt id='2017'>0.21686E+02</wgt>
<wgt id='2018'>0.21693E+02</wgt>
<wgt id='2019'>0.21700E+02</wgt>
<wgt id='2020'>0.21719E+02</wgt>
<wgt id='2021'>0.21689E+02</wgt>
<wgt id='2022'>0.21705E+02</wgt>
<wgt id='2023'>0.21728E+02</wgt>
<wgt id='2024'>0.21669E+02</wgt>
<wgt id='2025'>0.21722E+02</wgt>
<wgt id='2026'>0.21739E+02</wgt>
<wgt id='2027'>0.21664E+02</wgt>
<wgt id='2028'>0.21662E+02</wgt>
<wgt id='2029'>0.21769E+02</wgt>
<wgt id='2030'>0.21694E+02</wgt>
<wgt id='2031'>0.21723E+02</wgt>
<wgt id='2032'>0.21688E+02</wgt>
<wgt id='2033'>0.21680E+02</wgt>
<wgt id='2034'>0.21745E+02</wgt>
<wgt id='2035'>0.21681E+02</wgt>
<wgt id='2036'>0.21702E+02</wgt>
<wgt id='2037'>0.21718E+02</wgt>
<wgt id='2038'>0.21671E+02</wgt>
<wgt id='2039'>0.21651E+02</wgt>
<wgt id='2040'>0.21691E+02</wgt>
<wgt id='2041'>0.21691E+02</wgt>
<wgt id='2042'>0.21682E+02</wgt>
<wgt id='2043'>0.21691E+02</wgt>
<wgt id='2044'>0.21719E+02</wgt>
<wgt id='2045'>0.21679E+02</wgt>
<wgt id='2046'>0.21712E+02</wgt>
<wgt id='2047'>0.21716E+02</wgt>
<wgt id='2048'>0.21682E+02</wgt>
<wgt id='2049'>0.21695E+02</wgt>
<wgt id='2050'>0.21703E+02</wgt>
<wgt id='2051'>0.21721E+02</wgt>
<wgt id='2052'>0.21702E+02</wgt>
<wgt id='2053'>0.21703E+02</wgt>
<wgt id='2054'>0.21705E+02</wgt>
<wgt id='2055'>0.21682E+02</wgt>
<wgt id='2056'>0.21695E+02</wgt>
<wgt id='2057'>0.21715E+02</wgt>
<wgt id='2058'>0.21705E+02</wgt>
<wgt id='2059'>0.21693E+02</wgt>
<wgt id='2060'>0.21695E+02</wgt>
<wgt id='2061'>0.21689E+02</wgt>
<wgt id='2062'>0.21693E+02</wgt>
<wgt id='2063'>0.21693E+02</wgt>
<wgt id='2064'>0.21697E+02</wgt>
<wgt id='2065'>0.21701E+02</wgt>
<wgt id='2066'>0.21695E+02</wgt>
<wgt id='2067'>0.21694E+02</wgt>
<wgt id='2068'>0.21701E+02</wgt>
<wgt id='2069'>0.21690E+02</wgt>
<wgt id='2070'>0.21695E+02</wgt>
<wgt id='2071'>0.21692E+02</wgt>
<wgt id='2072'>0.21701E+02</wgt>
<wgt id='2073'>0.21696E+02</wgt>
<wgt id='2074'>0.21690E+02</wgt>
<wgt id='2075'>0.21693E+02</wgt>
<wgt id='2076'>0.21696E+02</wgt>
<wgt id='2077'>0.21693E+02</wgt>
<wgt id='2078'>0.21694E+02</wgt>
<wgt id='2079'>0.21695E+02</wgt>
<wgt id='2080'>0.21699E+02</wgt>
<wgt id='2081'>0.21701E+02</wgt>
<wgt id='2082'>0.21699E+02</wgt>
<wgt id='2083'>0.21695E+02</wgt>
<wgt id='2084'>0.21695E+02</wgt>
<wgt id='2085'>0.21696E+02</wgt>
<wgt id='2086'>0.21692E+02</wgt>
<wgt id='2087'>0.21689E+02</wgt>
<wgt id='2088'>0.21700E+02</wgt>
<wgt id='2089'>0.21695E+02</wgt>
<wgt id='2090'>0.21694E+02</wgt>
<wgt id='2091'>0.21698E+02</wgt>
<wgt id='2092'>0.21696E+02</wgt>
<wgt id='2093'>0.21698E+02</wgt>
<wgt id='2094'>0.21697E+02</wgt>
<wgt id='2095'>0.21700E+02</wgt>
<wgt id='2096'>0.21692E+02</wgt>
<wgt id='2097'>0.21700E+02</wgt>
<wgt id='2098'>0.21694E+02</wgt>
<wgt id='2099'>0.21694E+02</wgt>
<wgt id='2100'>0.21699E+02</wgt>
<wgt id='2101'>0.21058E+02</wgt>
<wgt id='2102'>0.22328E+02</wgt>
<wgt id='2104'>0.18688E+02</wgt>
<wgt id='2105'>0.19263E+02</wgt>
<wgt id='2106'>0.19837E+02</wgt>
<wgt id='2107'>0.20424E+02</wgt>
<wgt id='2108'>0.21386E+02</wgt>
<wgt id='2109'>0.22021E+02</wgt>
<wgt id='2110'>0.22920E+02</wgt>
<wgt id='2111'>0.23554E+02</wgt>
<wgt id='3000'>0.22705E+02</wgt>
<wgt id='3001'>0.22731E+02</wgt>
<wgt id='3002'>0.22672E+02</wgt>
<wgt id='3003'>0.22704E+02</wgt>
<wgt id='3004'>0.22734E+02</wgt>
<wgt id='3005'>0.22696E+02</wgt>
<wgt id='3006'>0.22695E+02</wgt>
<wgt id='3007'>0.22673E+02</wgt>
<wgt id='3008'>0.22696E+02</wgt>
<wgt id='3009'>0.22646E+02</wgt>
<wgt id='3010'>0.22684E+02</wgt>
<wgt id='3011'>0.22717E+02</wgt>
<wgt id='3012'>0.22731E+02</wgt>
<wgt id='3013'>0.22696E+02</wgt>
<wgt id='3014'>0.22693E+02</wgt>
<wgt id='3015'>0.22702E+02</wgt>
<wgt id='3016'>0.22706E+02</wgt>
<wgt id='3017'>0.22700E+02</wgt>
<wgt id='3018'>0.22726E+02</wgt>
<wgt id='3019'>0.22718E+02</wgt>
<wgt id='3020'>0.22700E+02</wgt>
<wgt id='3021'>0.22690E+02</wgt>
<wgt id='3022'>0.22704E+02</wgt>
<wgt id='3023'>0.22687E+02</wgt>
<wgt id='3024'>0.22679E+02</wgt>
<wgt id='3025'>0.22722E+02</wgt>
<wgt id='3026'>0.22714E+02</wgt>
<wgt id='3027'>0.22711E+02</wgt>
<wgt id='3028'>0.22657E+02</wgt>
<wgt id='3029'>0.22661E+02</wgt>
<wgt id='3030'>0.22786E+02</wgt>
<wgt id='3031'>0.22745E+02</wgt>
<wgt id='3032'>0.22723E+02</wgt>
<wgt id='3033'>0.22744E+02</wgt>
<wgt id='3034'>0.22715E+02</wgt>
<wgt id='3035'>0.22774E+02</wgt>
<wgt id='3036'>0.22727E+02</wgt>
<wgt id='3037'>0.22681E+02</wgt>
<wgt id='3038'>0.22717E+02</wgt>
<wgt id='3039'>0.22699E+02</wgt>
<wgt id='3040'>0.22692E+02</wgt>
<wgt id='3041'>0.22716E+02</wgt>
<wgt id='3042'>0.22683E+02</wgt>
<wgt id='3043'>0.22681E+02</wgt>
<wgt id='3044'>0.22700E+02</wgt>
<wgt id='3045'>0.22715E+02</wgt>
<wgt id='3046'>0.22717E+02</wgt>
<wgt id='3047'>0.22702E+02</wgt>
<wgt id='3048'>0.22707E+02</wgt>
<wgt id='3049'>0.22698E+02</wgt>
<wgt id='3050'>0.22698E+02</wgt>
<wgt id='3051'>0.22723E+02</wgt>
<wgt id='3052'>0.22690E+02</wgt>
<wgt id='3053'>0.22701E+02</wgt>
<wgt id='3054'>0.22704E+02</wgt>
<wgt id='3055'>0.22677E+02</wgt>
<wgt id='3056'>0.22702E+02</wgt>
<wgt id='3057'>0.22702E+02</wgt>
<wgt id='3058'>0.22678E+02</wgt>
<wgt id='3059'>0.22707E+02</wgt>
<wgt id='3060'>0.22697E+02</wgt>
<wgt id='3061'>0.22704E+02</wgt>
<wgt id='3062'>0.22713E+02</wgt>
<wgt id='3063'>0.22713E+02</wgt>
<wgt id='3064'>0.22704E+02</wgt>
<wgt id='3065'>0.22701E+02</wgt>
<wgt id='3066'>0.22701E+02</wgt>
<wgt id='3067'>0.22691E+02</wgt>
<wgt id='3068'>0.22707E+02</wgt>
<wgt id='3069'>0.22704E+02</wgt>
<wgt id='3070'>0.22704E+02</wgt>
<wgt id='3071'>0.22703E+02</wgt>
<wgt id='3072'>0.22703E+02</wgt>
<wgt id='3073'>0.22696E+02</wgt>
<wgt id='3074'>0.22711E+02</wgt>
<wgt id='3075'>0.22703E+02</wgt>
<wgt id='3076'>0.22703E+02</wgt>
<wgt id='3077'>0.22708E+02</wgt>
<wgt id='3078'>0.22712E+02</wgt>
<wgt id='3079'>0.22702E+02</wgt>
<wgt id='3080'>0.22702E+02</wgt>
<wgt id='3081'>0.22700E+02</wgt>
<wgt id='3082'>0.22696E+02</wgt>
<wgt id='3083'>0.22709E+02</wgt>
<wgt id='3084'>0.22702E+02</wgt>
<wgt id='3085'>0.22707E+02</wgt>
<wgt id='3086'>0.22697E+02</wgt>
<wgt id='3087'>0.22699E+02</wgt>
<wgt id='3088'>0.22707E+02</wgt>
<wgt id='3089'>0.22706E+02</wgt>
<wgt id='3090'>0.22707E+02</wgt>
<wgt id='3091'>0.22708E+02</wgt>
<wgt id='3092'>0.22704E+02</wgt>
<wgt id='3093'>0.22706E+02</wgt>
<wgt id='3094'>0.22708E+02</wgt>
<wgt id='3095'>0.22705E+02</wgt>
<wgt id='3096'>0.22703E+02</wgt>
<wgt id='3097'>0.22704E+02</wgt>
<wgt id='3098'>0.22703E+02</wgt>
<wgt id='3099'>0.22707E+02</wgt>
<wgt id='3100'>0.22704E+02</wgt>
<wgt id='3101'>0.22010E+02</wgt>
<wgt id='3102'>0.23399E+02</wgt>
<wgt id='5000'>0.21268E+02</wgt>
<wgt id='5001'>0.21253E+02</wgt>
<wgt id='5002'>0.21239E+02</wgt>
<wgt id='5003'>0.21253E+02</wgt>
<wgt id='5004'>0.21223E+02</wgt>
<wgt id='5005'>0.21143E+02</wgt>
<wgt id='5006'>0.21094E+02</wgt>
<wgt id='5007'>0.21156E+02</wgt>
<wgt id='5008'>0.21281E+02</wgt>
<wgt id='5009'>0.21289E+02</wgt>
<wgt id='5010'>0.21238E+02</wgt>
<wgt id='5011'>0.21306E+02</wgt>
<wgt id='5012'>0.21206E+02</wgt>
<wgt id='5013'>0.21173E+02</wgt>
<wgt id='5014'>0.21350E+02</wgt>
<wgt id='5015'>0.21322E+02</wgt>
<wgt id='5016'>0.21082E+02</wgt>
<wgt id='5017'>0.21167E+02</wgt>
<wgt id='5018'>0.21375E+02</wgt>
<wgt id='5019'>0.21250E+02</wgt>
<wgt id='5020'>0.21287E+02</wgt>
<wgt id='5021'>0.21274E+02</wgt>
<wgt id='5022'>0.21263E+02</wgt>
<wgt id='5023'>0.21169E+02</wgt>
<wgt id='5024'>0.21374E+02</wgt>
<wgt id='5025'>0.21282E+02</wgt>
<wgt id='5026'>0.21256E+02</wgt>
<wgt id='5027'>0.21398E+02</wgt>
<wgt id='5028'>0.21046E+02</wgt>
<wgt id='5029'>0.21058E+02</wgt>
<wgt id='5030'>0.21392E+02</wgt>
<wgt id='5031'>0.21130E+02</wgt>
<wgt id='5032'>0.21466E+02</wgt>
<wgt id='5033'>0.21183E+02</wgt>
<wgt id='5034'>0.21340E+02</wgt>
<wgt id='5035'>0.21132E+02</wgt>
<wgt id='5036'>0.21378E+02</wgt>
<wgt id='5037'>0.21058E+02</wgt>
<wgt id='5038'>0.21501E+02</wgt>
<wgt id='5039'>0.21612E+02</wgt>
<wgt id='5040'>0.21095E+02</wgt>
<wgt id='5041'>0.21231E+02</wgt>
<wgt id='5042'>0.21257E+02</wgt>
<wgt id='5043'>0.21365E+02</wgt>
<wgt id='5044'>0.21026E+02</wgt>
<wgt id='5045'>0.21426E+02</wgt>
<wgt id='5046'>0.21145E+02</wgt>
<wgt id='5047'>0.21215E+02</wgt>
<wgt id='5048'>0.21386E+02</wgt>
<wgt id='5049'>0.21265E+02</wgt>
<wgt id='5050'>0.21293E+02</wgt>
<wgt id='5051'>0.21285E+02</wgt>
<wgt id='5052'>0.21259E+02</wgt>
<wgt id='5053'>0.20768E+02</wgt>
<wgt id='5054'>0.21079E+02</wgt>
<wgt id='5055'>0.21137E+02</wgt>
<wgt id='5056'>0.21492E+02</wgt>
<wgt id='5060'>0.20579E+02</wgt>
<wgt id='5070'>0.21958E+02</wgt>
<wgt id='4000'>0.22184E+02</wgt>
<wgt id='4001'>0.22179E+02</wgt>
<wgt id='4002'>0.22215E+02</wgt>
<wgt id='4003'>0.22087E+02</wgt>
<wgt id='4004'>0.22159E+02</wgt>
<wgt id='4005'>0.22224E+02</wgt>
<wgt id='4006'>0.22156E+02</wgt>
<wgt id='4007'>0.22203E+02</wgt>
<wgt id='4008'>0.22182E+02</wgt>
<wgt id='4009'>0.22011E+02</wgt>
<wgt id='4010'>0.22259E+02</wgt>
<wgt id='4011'>0.22427E+02</wgt>
<wgt id='4012'>0.22024E+02</wgt>
<wgt id='4013'>0.21767E+02</wgt>
<wgt id='4014'>0.22431E+02</wgt>
<wgt id='4015'>0.22463E+02</wgt>
<wgt id='4016'>0.22006E+02</wgt>
<wgt id='4017'>0.21911E+02</wgt>
<wgt id='4018'>0.22509E+02</wgt>
<wgt id='4019'>0.22340E+02</wgt>
<wgt id='4020'>0.22007E+02</wgt>
<wgt id='4021'>0.22210E+02</wgt>
<wgt id='4022'>0.22123E+02</wgt>
<wgt id='4023'>0.22164E+02</wgt>
<wgt id='4024'>0.22193E+02</wgt>
<wgt id='4025'>0.22180E+02</wgt>
<wgt id='4026'>0.22179E+02</wgt>
<wgt id='4027'>0.22173E+02</wgt>
<wgt id='4028'>0.22196E+02</wgt>
<wgt id='4029'>0.22116E+02</wgt>
<wgt id='4030'>0.22207E+02</wgt>
<wgt id='4031'>0.22222E+02</wgt>
<wgt id='4032'>0.22134E+02</wgt>
<wgt id='4033'>0.22136E+02</wgt>
<wgt id='4034'>0.22289E+02</wgt>
<wgt id='4035'>0.22217E+02</wgt>
<wgt id='4036'>0.22152E+02</wgt>
<wgt id='4037'>0.22223E+02</wgt>
<wgt id='4038'>0.22100E+02</wgt>
<wgt id='4039'>0.22133E+02</wgt>
<wgt id='4040'>0.22211E+02</wgt>
<wgt id='4041'>0.22231E+02</wgt>
<wgt id='4042'>0.22144E+02</wgt>
<wgt id='4043'>0.22169E+02</wgt>
<wgt id='4044'>0.22253E+02</wgt>
<wgt id='4045'>0.22019E+02</wgt>
<wgt id='4046'>0.22197E+02</wgt>
<wgt id='4047'>0.22143E+02</wgt>
<wgt id='4048'>0.22020E+02</wgt>
<wgt id='4049'>0.21976E+02</wgt>
<wgt id='4050'>0.22149E+02</wgt>
<wgt id='4051'>0.22165E+02</wgt>
<wgt id='4052'>0.22172E+02</wgt>
<wgt id='4053'>0.21510E+02</wgt>
<wgt id='4054'>0.22224E+02</wgt>
<wgt id='4055'>0.22076E+02</wgt>
<wgt id='4056'>0.22371E+02</wgt>
<wgt id='4060'>0.21437E+02</wgt>
<wgt id='4070'>0.22938E+02</wgt>
<wgt id='4080'>0.22883E+02</wgt>
<wgt id='6000'>0.22448E+02</wgt>
<wgt id='6001'>0.22469E+02</wgt>
<wgt id='6002'>0.22424E+02</wgt>
<wgt id='6003'>0.22457E+02</wgt>
<wgt id='6004'>0.22441E+02</wgt>
<wgt id='6005'>0.22497E+02</wgt>
<wgt id='6006'>0.22401E+02</wgt>
<wgt id='6007'>0.22377E+02</wgt>
<wgt id='6008'>0.22526E+02</wgt>
<wgt id='6009'>0.22523E+02</wgt>
<wgt id='6010'>0.22375E+02</wgt>
<wgt id='6011'>0.22490E+02</wgt>
<wgt id='6012'>0.22358E+02</wgt>
<wgt id='6013'>0.22425E+02</wgt>
<wgt id='6014'>0.22487E+02</wgt>
<wgt id='6015'>0.22397E+02</wgt>
<wgt id='6016'>0.22476E+02</wgt>
<wgt id='6017'>0.22327E+02</wgt>
<wgt id='6018'>0.22590E+02</wgt>
<wgt id='6019'>0.22451E+02</wgt>
<wgt id='6020'>0.22444E+02</wgt>
<wgt id='6021'>0.22402E+02</wgt>
<wgt id='6022'>0.22509E+02</wgt>
<wgt id='6023'>0.22301E+02</wgt>
<wgt id='6024'>0.22550E+02</wgt>
<wgt id='6025'>0.22427E+02</wgt>
<wgt id='6026'>0.22411E+02</wgt>
<wgt id='6027'>0.22500E+02</wgt>
<wgt id='6028'>0.22441E+02</wgt>
<wgt id='6029'>0.22475E+02</wgt>
<wgt id='6030'>0.22415E+02</wgt>
<wgt id='6031'>0.22372E+02</wgt>
<wgt id='6032'>0.22524E+02</wgt>
<wgt id='6033'>0.22510E+02</wgt>
<wgt id='6034'>0.22385E+02</wgt>
<wgt id='6035'>0.22462E+02</wgt>
<wgt id='6036'>0.22447E+02</wgt>
<wgt id='6037'>0.22480E+02</wgt>
<wgt id='6038'>0.22446E+02</wgt>
<wgt id='6039'>0.22407E+02</wgt>
<wgt id='6040'>0.22492E+02</wgt>
<wgt id='6041'>0.22381E+02</wgt>
<wgt id='6042'>0.22527E+02</wgt>
<wgt id='6043'>0.22707E+02</wgt>
<wgt id='6044'>0.22347E+02</wgt>
<wgt id='6045'>0.22430E+02</wgt>
<wgt id='6046'>0.22498E+02</wgt>
<wgt id='6047'>0.22565E+02</wgt>
<wgt id='6048'>0.22244E+02</wgt>
<wgt id='6049'>0.22500E+02</wgt>
<wgt id='6050'>0.22418E+02</wgt>
<wgt id='7000'>0.21249E+02</wgt>
<wgt id='7001'>0.21258E+02</wgt>
<wgt id='7002'>0.21240E+02</wgt>
<wgt id='7003'>0.21308E+02</wgt>
<wgt id='7004'>0.21190E+02</wgt>
<wgt id='7005'>0.21282E+02</wgt>
<wgt id='7006'>0.21237E+02</wgt>
<wgt id='7007'>0.21187E+02</wgt>
<wgt id='7008'>0.21311E+02</wgt>
<wgt id='7009'>0.21286E+02</wgt>
<wgt id='7010'>0.21213E+02</wgt>
<wgt id='7011'>0.21074E+02</wgt>
<wgt id='7012'>0.21325E+02</wgt>
<wgt id='7013'>0.21247E+02</wgt>
<wgt id='7014'>0.21253E+02</wgt>
<wgt id='7015'>0.21199E+02</wgt>
<wgt id='7016'>0.21304E+02</wgt>
<wgt id='7017'>0.21142E+02</wgt>
<wgt id='7018'>0.21307E+02</wgt>
<wgt id='7019'>0.21236E+02</wgt>
<wgt id='7020'>0.21269E+02</wgt>
<wgt id='7021'>0.21240E+02</wgt>
<wgt id='7022'>0.21255E+02</wgt>
<wgt id='7023'>0.21377E+02</wgt>
<wgt id='7024'>0.21116E+02</wgt>
<wgt id='7025'>0.21307E+02</wgt>
<wgt id='7026'>0.21108E+02</wgt>
<wgt id='7027'>0.21312E+02</wgt>
<wgt id='7028'>0.21223E+02</wgt>
<wgt id='7029'>0.21238E+02</wgt>
<wgt id='7030'>0.21268E+02</wgt>
<wgt id='7031'>0.21212E+02</wgt>
<wgt id='7032'>0.21332E+02</wgt>
<wgt id='7033'>0.21251E+02</wgt>
<wgt id='7034'>0.21259E+02</wgt>
<wgt id='7035'>0.21221E+02</wgt>
<wgt id='7036'>0.21272E+02</wgt>
<wgt id='7037'>0.21253E+02</wgt>
<wgt id='7038'>0.21260E+02</wgt>
<wgt id='7039'>0.21199E+02</wgt>
<wgt id='7040'>0.21286E+02</wgt>
<wgt id='7041'>0.21237E+02</wgt>
<wgt id='7042'>0.21259E+02</wgt>
<wgt id='7043'>0.21265E+02</wgt>
<wgt id='7044'>0.21159E+02</wgt>
<wgt id='7045'>0.21072E+02</wgt>
<wgt id='7046'>0.21365E+02</wgt>
<wgt id='7047'>0.21314E+02</wgt>
<wgt id='7048'>0.21222E+02</wgt>
<wgt id='7049'>0.21198E+02</wgt>
<wgt id='7050'>0.21284E+02</wgt>
<wgt id='7060'>0.32769E+02</wgt>
<wgt id='8000'>0.21422E+02</wgt>
<wgt id='8001'>0.21417E+02</wgt>
<wgt id='8002'>0.21428E+02</wgt>
<wgt id='8003'>0.21423E+02</wgt>
<wgt id='8004'>0.21421E+02</wgt>
<wgt id='8005'>0.21377E+02</wgt>
<wgt id='8006'>0.21422E+02</wgt>
<wgt id='8007'>0.21417E+02</wgt>
<wgt id='8008'>0.21460E+02</wgt>
<wgt id='8009'>0.21500E+02</wgt>
<wgt id='8010'>0.21415E+02</wgt>
<wgt id='8011'>0.21418E+02</wgt>
<wgt id='8012'>0.21384E+02</wgt>
<wgt id='8013'>0.21404E+02</wgt>
<wgt id='8014'>0.21434E+02</wgt>
<wgt id='8015'>0.21408E+02</wgt>
<wgt id='8016'>0.21435E+02</wgt>
<wgt id='8017'>0.21428E+02</wgt>
<wgt id='8018'>0.21446E+02</wgt>
<wgt id='8019'>0.21435E+02</wgt>
<wgt id='8020'>0.21395E+02</wgt>
<wgt id='8021'>0.21415E+02</wgt>
<wgt id='8022'>0.21372E+02</wgt>
<wgt id='8023'>0.21417E+02</wgt>
<wgt id='8024'>0.21407E+02</wgt>
<wgt id='8025'>0.21441E+02</wgt>
<wgt id='8026'>0.21452E+02</wgt>
<wgt id='8027'>0.21411E+02</wgt>
<wgt id='8028'>0.21440E+02</wgt>
<wgt id='8029'>0.21358E+02</wgt>
<wgt id='8500'>0.22438E+02</wgt>
<wgt id='8501'>0.22331E+02</wgt>
<wgt id='8502'>0.22512E+02</wgt>
<wgt id='8503'>0.22507E+02</wgt>
<wgt id='8504'>0.22383E+02</wgt>
<wgt id='8505'>0.22435E+02</wgt>
<wgt id='8506'>0.22458E+02</wgt>
<wgt id='8507'>0.22441E+02</wgt>
<wgt id='8508'>0.22406E+02</wgt>
<wgt id='8509'>0.22472E+02</wgt>
<wgt id='8510'>0.22661E+02</wgt>
<wgt id='8511'>0.22440E+02</wgt>
<wgt id='8512'>0.22361E+02</wgt>
<wgt id='8513'>0.22436E+02</wgt>
<wgt id='8514'>0.22240E+02</wgt>
<wgt id='8515'>0.22528E+02</wgt>
<wgt id='8516'>0.22443E+02</wgt>
<wgt id='8517'>0.22364E+02</wgt>
<wgt id='8518'>0.22339E+02</wgt>
<wgt id='8519'>0.22329E+02</wgt>
<wgt id='8520'>0.22414E+02</wgt>
<wgt id='8521'>0.22346E+02</wgt>
<wgt id='8522'>0.22486E+02</wgt>
<wgt id='8523'>0.22365E+02</wgt>
<wgt id='8524'>0.22458E+02</wgt>
<wgt id='8525'>0.22422E+02</wgt>
<wgt id='8526'>0.22397E+02</wgt>
<wgt id='8527'>0.22436E+02</wgt>
<wgt id='8528'>0.22379E+02</wgt>
<wgt id='8529'>0.22411E+02</wgt>
<wgt id='8530'>0.22451E+02</wgt>
<wgt id='8531'>0.22431E+02</wgt>
<wgt id='8532'>0.22439E+02</wgt>
<wgt id='8533'>0.22380E+02</wgt>
<wgt id='8534'>0.22441E+02</wgt>
<wgt id='8535'>0.22493E+02</wgt>
<wgt id='8536'>0.22417E+02</wgt>
<wgt id='8537'>0.22441E+02</wgt>
<wgt id='8538'>0.22422E+02</wgt>
<wgt id='8539'>0.22443E+02</wgt>
<wgt id='8540'>0.22442E+02</wgt>
<wgt id='8541'>0.22450E+02</wgt>
<wgt id='8542'>0.22447E+02</wgt>
<wgt id='8543'>0.22415E+02</wgt>
<wgt id='8544'>0.22459E+02</wgt>
<wgt id='8545'>0.22455E+02</wgt>
<wgt id='8546'>0.22465E+02</wgt>
<wgt id='8547'>0.22412E+02</wgt>
<wgt id='8548'>0.22417E+02</wgt>
<wgt id='8549'>0.22441E+02</wgt>
<wgt id='8550'>0.22434E+02</wgt>
<wgt id='8551'>0.22425E+02</wgt>
<wgt id='8552'>0.22434E+02</wgt>
<wgt id='8553'>0.22418E+02</wgt>
<wgt id='8554'>0.22429E+02</wgt>
<wgt id='8555'>0.22438E+02</wgt>
<wgt id='8556'>0.22431E+02</wgt>
<wgt id='8557'>0.22438E+02</wgt>
<wgt id='8558'>0.22461E+02</wgt>
<wgt id='8559'>0.22428E+02</wgt>
<wgt id='8560'>0.22413E+02</wgt>
<wgt id='8561'>0.22441E+02</wgt>
<wgt id='8562'>0.22421E+02</wgt>
<wgt id='8563'>0.22439E+02</wgt>
<wgt id='8564'>0.22432E+02</wgt>
<wgt id='8565'>0.22439E+02</wgt>
<wgt id='8566'>0.22436E+02</wgt>
<wgt id='8567'>0.22435E+02</wgt>
<wgt id='8568'>0.22449E+02</wgt>
<wgt id='8569'>0.22447E+02</wgt>
<wgt id='8570'>0.22437E+02</wgt>
<wgt id='8571'>0.22421E+02</wgt>
<wgt id='8572'>0.22426E+02</wgt>
<wgt id='8573'>0.22426E+02</wgt>
<wgt id='8574'>0.22440E+02</wgt>
<wgt id='8575'>0.22433E+02</wgt>
<wgt id='8576'>0.22435E+02</wgt>
<wgt id='8577'>0.22434E+02</wgt>
<wgt id='8578'>0.22438E+02</wgt>
<wgt id='8579'>0.22453E+02</wgt>
<wgt id='8580'>0.22435E+02</wgt>
<wgt id='8581'>0.22448E+02</wgt>
<wgt id='8582'>0.22420E+02</wgt>
<wgt id='8583'>0.22447E+02</wgt>
<wgt id='8584'>0.22446E+02</wgt>
<wgt id='8585'>0.22445E+02</wgt>
<wgt id='8586'>0.22451E+02</wgt>
<wgt id='8587'>0.22436E+02</wgt>
<wgt id='8588'>0.22432E+02</wgt>
<wgt id='8589'>0.22438E+02</wgt>
<wgt id='8590'>0.22437E+02</wgt>
<wgt id='8591'>0.22434E+02</wgt>
<wgt id='8592'>0.22437E+02</wgt>
<wgt id='8593'>0.22429E+02</wgt>
<wgt id='8594'>0.22440E+02</wgt>
<wgt id='8595'>0.22440E+02</wgt>
<wgt id='8596'>0.22434E+02</wgt>
<wgt id='8597'>0.22440E+02</wgt>
<wgt id='8598'>0.22444E+02</wgt>
<wgt id='8599'>0.22439E+02</wgt>
<wgt id='8600'>0.22438E+02</wgt>
<wgt id='8601'>0.21942E+02</wgt>
<wgt id='8602'>0.22917E+02</wgt>
<wgt id='9000'>0.21353E+02</wgt>
<wgt id='9001'>0.21379E+02</wgt>
<wgt id='9002'>0.21398E+02</wgt>
<wgt id='9003'>0.21277E+02</wgt>
<wgt id='9004'>0.21361E+02</wgt>
<wgt id='9005'>0.21389E+02</wgt>
<wgt id='9006'>0.21373E+02</wgt>
<wgt id='9007'>0.21399E+02</wgt>
<wgt id='9008'>0.21385E+02</wgt>
<wgt id='9009'>0.21341E+02</wgt>
<wgt id='9010'>0.21298E+02</wgt>
<wgt id='9011'>0.21481E+02</wgt>
<wgt id='9012'>0.21296E+02</wgt>
<wgt id='9013'>0.21222E+02</wgt>
<wgt id='9014'>0.21310E+02</wgt>
<wgt id='9015'>0.21340E+02</wgt>
<wgt id='9016'>0.21497E+02</wgt>
<wgt id='9017'>0.21264E+02</wgt>
<wgt id='9018'>0.21345E+02</wgt>
<wgt id='9019'>0.21357E+02</wgt>
<wgt id='9020'>0.21474E+02</wgt>
<wgt id='9021'>0.21348E+02</wgt>
<wgt id='9022'>0.21396E+02</wgt>
<wgt id='9023'>0.21251E+02</wgt>
<wgt id='9024'>0.21301E+02</wgt>
<wgt id='9025'>0.21407E+02</wgt>
<wgt id='9026'>0.21356E+02</wgt>
<wgt id='9027'>0.21330E+02</wgt>
<wgt id='9028'>0.21375E+02</wgt>
<wgt id='9029'>0.21376E+02</wgt>
<wgt id='9030'>0.21371E+02</wgt>
<wgt id='9031'>0.21332E+02</wgt>
<wgt id='9032'>0.21369E+02</wgt>
<wgt id='9033'>0.21382E+02</wgt>
<wgt id='9034'>0.21357E+02</wgt>
<wgt id='9035'>0.21391E+02</wgt>
<wgt id='9036'>0.21360E+02</wgt>
<wgt id='9037'>0.21371E+02</wgt>
<wgt id='9038'>0.21362E+02</wgt>
<wgt id='9039'>0.21357E+02</wgt>
<wgt id='9040'>0.21329E+02</wgt>
<wgt id='9041'>0.21349E+02</wgt>
<wgt id='9042'>0.21357E+02</wgt>
<wgt id='9043'>0.21328E+02</wgt>
<wgt id='9044'>0.21358E+02</wgt>
<wgt id='9045'>0.21353E+02</wgt>
<wgt id='9046'>0.21322E+02</wgt>
<wgt id='9047'>0.21352E+02</wgt>
<wgt id='9048'>0.21363E+02</wgt>
<wgt id='9049'>0.21343E+02</wgt>
<wgt id='9050'>0.21355E+02</wgt>
<wgt id='9051'>0.21367E+02</wgt>
<wgt id='9052'>0.21368E+02</wgt>
<wgt id='9053'>0.21356E+02</wgt>
<wgt id='9054'>0.21343E+02</wgt>
<wgt id='9055'>0.21344E+02</wgt>
<wgt id='9056'>0.21370E+02</wgt>
<wgt id='9057'>0.21354E+02</wgt>
<wgt id='9058'>0.21334E+02</wgt>
<wgt id='9059'>0.21338E+02</wgt>
<wgt id='9060'>0.21345E+02</wgt>
<wgt id='9061'>0.21353E+02</wgt>
<wgt id='9062'>0.21359E+02</wgt>
<wgt id='9063'>0.21359E+02</wgt>
<wgt id='9064'>0.21350E+02</wgt>
<wgt id='9065'>0.21349E+02</wgt>
<wgt id='9066'>0.21352E+02</wgt>
<wgt id='9067'>0.21359E+02</wgt>
<wgt id='9068'>0.21357E+02</wgt>
<wgt id='9069'>0.21372E+02</wgt>
<wgt id='9070'>0.21348E+02</wgt>
<wgt id='9071'>0.21366E+02</wgt>
<wgt id='9072'>0.21368E+02</wgt>
<wgt id='9073'>0.21349E+02</wgt>
<wgt id='9074'>0.21355E+02</wgt>
<wgt id='9075'>0.21351E+02</wgt>
<wgt id='9076'>0.21350E+02</wgt>
<wgt id='9077'>0.21359E+02</wgt>
<wgt id='9078'>0.21355E+02</wgt>
<wgt id='9079'>0.21349E+02</wgt>
<wgt id='9080'>0.21372E+02</wgt>
<wgt id='9081'>0.21352E+02</wgt>
<wgt id='9082'>0.21359E+02</wgt>
<wgt id='9083'>0.21345E+02</wgt>
<wgt id='9084'>0.21346E+02</wgt>
<wgt id='9085'>0.21345E+02</wgt>
<wgt id='9086'>0.21356E+02</wgt>
<wgt id='9087'>0.21336E+02</wgt>
<wgt id='9088'>0.21349E+02</wgt>
<wgt id='9089'>0.21347E+02</wgt>
<wgt id='9090'>0.21356E+02</wgt>
<wgt id='9091'>0.21350E+02</wgt>
<wgt id='9092'>0.21352E+02</wgt>
<wgt id='9093'>0.21347E+02</wgt>
<wgt id='9094'>0.21352E+02</wgt>
<wgt id='9095'>0.21356E+02</wgt>
<wgt id='9096'>0.21347E+02</wgt>
<wgt id='9097'>0.21356E+02</wgt>
<wgt id='9098'>0.21353E+02</wgt>
<wgt id='9099'>0.21348E+02</wgt>
<wgt id='9100'>0.21354E+02</wgt>
<wgt id='9101'>0.20936E+02</wgt>
<wgt id='9102'>0.21779E+02</wgt>
<wgt id='10000'>0.22438E+02</wgt>
<wgt id='10001'>0.22513E+02</wgt>
<wgt id='10002'>0.22307E+02</wgt>
<wgt id='10003'>0.22427E+02</wgt>
<wgt id='10004'>0.22286E+02</wgt>
<wgt id='10005'>0.22669E+02</wgt>
<wgt id='10006'>0.22363E+02</wgt>
<wgt id='10007'>0.22431E+02</wgt>
<wgt id='10008'>0.22486E+02</wgt>
<wgt id='10009'>0.22369E+02</wgt>
<wgt id='10010'>0.22478E+02</wgt>
<wgt id='10011'>0.22379E+02</wgt>
<wgt id='10012'>0.22398E+02</wgt>
<wgt id='10013'>0.22452E+02</wgt>
<wgt id='10014'>0.22420E+02</wgt>
<wgt id='10015'>0.22458E+02</wgt>
<wgt id='10016'>0.22393E+02</wgt>
<wgt id='10017'>0.22375E+02</wgt>
<wgt id='10018'>0.22478E+02</wgt>
<wgt id='10019'>0.22383E+02</wgt>
<wgt id='10020'>0.22402E+02</wgt>
<wgt id='10021'>0.22421E+02</wgt>
<wgt id='10022'>0.22434E+02</wgt>
<wgt id='10023'>0.22449E+02</wgt>
<wgt id='10024'>0.22412E+02</wgt>
<wgt id='10025'>0.22421E+02</wgt>
<wgt id='10026'>0.22506E+02</wgt>
<wgt id='10027'>0.22485E+02</wgt>
<wgt id='10028'>0.22664E+02</wgt>
<wgt id='10029'>0.22462E+02</wgt>
<wgt id='10030'>0.22428E+02</wgt>
<wgt id='10031'>0.21942E+02</wgt>
<wgt id='10032'>0.22917E+02</wgt>
<wgt id='11000'>0.21353E+02</wgt>
<wgt id='11001'>0.21141E+02</wgt>
<wgt id='11002'>0.21387E+02</wgt>
<wgt id='11003'>0.21341E+02</wgt>
<wgt id='11004'>0.21383E+02</wgt>
<wgt id='11005'>0.21255E+02</wgt>
<wgt id='11006'>0.21357E+02</wgt>
<wgt id='11007'>0.21321E+02</wgt>
<wgt id='11008'>0.21320E+02</wgt>
<wgt id='11009'>0.21302E+02</wgt>
<wgt id='11010'>0.21466E+02</wgt>
<wgt id='11011'>0.21299E+02</wgt>
<wgt id='11012'>0.21359E+02</wgt>
<wgt id='11013'>0.21397E+02</wgt>
<wgt id='11014'>0.21326E+02</wgt>
<wgt id='11015'>0.21339E+02</wgt>
<wgt id='11016'>0.21348E+02</wgt>
<wgt id='11017'>0.21437E+02</wgt>
<wgt id='11018'>0.21349E+02</wgt>
<wgt id='11019'>0.21350E+02</wgt>
<wgt id='11020'>0.21379E+02</wgt>
<wgt id='11021'>0.21383E+02</wgt>
<wgt id='11022'>0.21550E+02</wgt>
<wgt id='11023'>0.21359E+02</wgt>
<wgt id='11024'>0.21362E+02</wgt>
<wgt id='11025'>0.21338E+02</wgt>
<wgt id='11026'>0.21357E+02</wgt>
<wgt id='11027'>0.21354E+02</wgt>
<wgt id='11028'>0.21363E+02</wgt>
<wgt id='11029'>0.21348E+02</wgt>
<wgt id='11030'>0.21351E+02</wgt>
<wgt id='11031'>0.20936E+02</wgt>
<wgt id='11032'>0.21779E+02</wgt>
<wgt id='12000'>0.22630E+02</wgt>
<wgt id='12001'>0.22603E+02</wgt>
<wgt id='12002'>0.22657E+02</wgt>
<wgt id='12003'>0.22674E+02</wgt>
<wgt id='12004'>0.22586E+02</wgt>
<wgt id='12005'>0.22657E+02</wgt>
<wgt id='12006'>0.22603E+02</wgt>
<wgt id='12007'>0.22695E+02</wgt>
<wgt id='12008'>0.22566E+02</wgt>
<wgt id='12009'>0.22641E+02</wgt>
<wgt id='12010'>0.22620E+02</wgt>
<wgt id='12011'>0.22536E+02</wgt>
<wgt id='12012'>0.22728E+02</wgt>
<wgt id='12013'>0.22568E+02</wgt>
<wgt id='12014'>0.22693E+02</wgt>
<wgt id='12015'>0.22663E+02</wgt>
<wgt id='12016'>0.22588E+02</wgt>
<wgt id='12017'>0.22703E+02</wgt>
<wgt id='12018'>0.22559E+02</wgt>
<wgt id='12019'>0.22632E+02</wgt>
<wgt id='12020'>0.22625E+02</wgt>
<wgt id='12021'>0.22690E+02</wgt>
<wgt id='12022'>0.22553E+02</wgt>
<wgt id='12023'>0.22479E+02</wgt>
<wgt id='12024'>0.22702E+02</wgt>
<wgt id='12025'>0.22591E+02</wgt>
<wgt id='12026'>0.22691E+02</wgt>
<wgt id='12027'>0.22771E+02</wgt>
<wgt id='12028'>0.22512E+02</wgt>
<wgt id='12050'>0.22630E+02</wgt>
<wgt id='12051'>0.22647E+02</wgt>
<wgt id='12052'>0.22589E+02</wgt>
<wgt id='12053'>0.22643E+02</wgt>
<wgt id='12054'>0.22604E+02</wgt>
<wgt id='12055'>0.22665E+02</wgt>
<wgt id='12056'>0.22670E+02</wgt>
<wgt id='12057'>0.22588E+02</wgt>
<wgt id='12058'>0.22678E+02</wgt>
<wgt id='12059'>0.22651E+02</wgt>
<wgt id='12060'>0.22619E+02</wgt>
<wgt id='12061'>0.22568E+02</wgt>
<wgt id='12062'>0.22656E+02</wgt>
<wgt id='12063'>0.22533E+02</wgt>
<wgt id='13000'>0.21669E+02</wgt>
<wgt id='13001'>0.21652E+02</wgt>
<wgt id='13002'>0.21682E+02</wgt>
<wgt id='13003'>0.21691E+02</wgt>
<wgt id='13004'>0.21643E+02</wgt>
<wgt id='13005'>0.21707E+02</wgt>
<wgt id='13006'>0.21627E+02</wgt>
<wgt id='13007'>0.21756E+02</wgt>
<wgt id='13008'>0.21580E+02</wgt>
<wgt id='13009'>0.21632E+02</wgt>
<wgt id='13010'>0.21704E+02</wgt>
<wgt id='13011'>0.21727E+02</wgt>
<wgt id='13012'>0.21608E+02</wgt>
<wgt id='13013'>0.21626E+02</wgt>
<wgt id='13014'>0.21708E+02</wgt>
<wgt id='13015'>0.21664E+02</wgt>
<wgt id='13016'>0.21662E+02</wgt>
<wgt id='13017'>0.21660E+02</wgt>
<wgt id='13018'>0.21672E+02</wgt>
<wgt id='13019'>0.21659E+02</wgt>
<wgt id='13020'>0.21675E+02</wgt>
<wgt id='13021'>0.21626E+02</wgt>
<wgt id='13022'>0.21687E+02</wgt>
<wgt id='13023'>0.21591E+02</wgt>
<wgt id='13024'>0.21740E+02</wgt>
<wgt id='13025'>0.21496E+02</wgt>
<wgt id='13026'>0.21794E+02</wgt>
<wgt id='13027'>0.21613E+02</wgt>
<wgt id='13028'>0.21743E+02</wgt>
<wgt id='13050'>0.21669E+02</wgt>
<wgt id='13051'>0.21682E+02</wgt>
<wgt id='13052'>0.21593E+02</wgt>
<wgt id='13053'>0.21671E+02</wgt>
<wgt id='13054'>0.21659E+02</wgt>
<wgt id='13055'>0.21429E+02</wgt>
<wgt id='13056'>0.21700E+02</wgt>
<wgt id='13057'>0.21623E+02</wgt>
<wgt id='13058'>0.21756E+02</wgt>
<wgt id='13059'>0.21654E+02</wgt>
<wgt id='13060'>0.21400E+02</wgt>
<wgt id='13061'>0.21624E+02</wgt>
<wgt id='13062'>0.21801E+02</wgt>
<wgt id='13063'>0.21701E+02</wgt>
<wgt id='14000'>0.22092E+02</wgt>
<wgt id='14001'>0.22089E+02</wgt>
<wgt id='14002'>0.22086E+02</wgt>
<wgt id='14003'>0.22082E+02</wgt>
<wgt id='14004'>0.22079E+02</wgt>
<wgt id='14005'>0.22076E+02</wgt>
<wgt id='14006'>0.22072E+02</wgt>
<wgt id='14007'>0.22069E+02</wgt>
<wgt id='14008'>0.22066E+02</wgt>
<wgt id='14009'>0.22063E+02</wgt>
<wgt id='14010'>0.22059E+02</wgt>
<wgt id='14011'>0.22056E+02</wgt>
<wgt id='14012'>0.22053E+02</wgt>
<wgt id='14013'>0.22050E+02</wgt>
<wgt id='14014'>0.22046E+02</wgt>
<wgt id='14015'>0.22043E+02</wgt>
<wgt id='14016'>0.22040E+02</wgt>
<wgt id='14017'>0.22037E+02</wgt>
<wgt id='14018'>0.22033E+02</wgt>
<wgt id='14019'>0.22030E+02</wgt>
<wgt id='14020'>0.22027E+02</wgt>
<wgt id='14021'>0.22024E+02</wgt>
<wgt id='14022'>0.22020E+02</wgt>
<wgt id='14023'>0.22017E+02</wgt>
<wgt id='14024'>0.22014E+02</wgt>
<wgt id='14025'>0.22010E+02</wgt>
<wgt id='14026'>0.22007E+02</wgt>
<wgt id='14027'>0.22004E+02</wgt>
<wgt id='14028'>0.22001E+02</wgt>
<wgt id='14029'>0.21997E+02</wgt>
<wgt id='14030'>0.21994E+02</wgt>
<wgt id='15000'>0.21088E+02</wgt>
<wgt id='15001'>0.21105E+02</wgt>
<wgt id='15002'>0.21128E+02</wgt>
<wgt id='15003'>0.21015E+02</wgt>
<wgt id='15004'>0.21095E+02</wgt>
<wgt id='15005'>0.21124E+02</wgt>
<wgt id='15006'>0.21114E+02</wgt>
<wgt id='15007'>0.21138E+02</wgt>
<wgt id='15008'>0.21119E+02</wgt>
<wgt id='15009'>0.21078E+02</wgt>
<wgt id='15010'>0.21034E+02</wgt>
<wgt id='15011'>0.21222E+02</wgt>
<wgt id='15012'>0.21034E+02</wgt>
<wgt id='15013'>0.20964E+02</wgt>
<wgt id='15014'>0.21041E+02</wgt>
<wgt id='15015'>0.21060E+02</wgt>
<wgt id='15016'>0.21237E+02</wgt>
<wgt id='15017'>0.20998E+02</wgt>
<wgt id='15018'>0.21078E+02</wgt>
<wgt id='15019'>0.21097E+02</wgt>
<wgt id='15020'>0.21215E+02</wgt>
<wgt id='15021'>0.21076E+02</wgt>
<wgt id='15022'>0.21130E+02</wgt>
<wgt id='15023'>0.20989E+02</wgt>
<wgt id='15024'>0.21032E+02</wgt>
<wgt id='15025'>0.21136E+02</wgt>
<wgt id='15026'>0.21084E+02</wgt>
<wgt id='15027'>0.21071E+02</wgt>
<wgt id='15028'>0.21113E+02</wgt>
<wgt id='15029'>0.21107E+02</wgt>
<wgt id='15030'>0.21102E+02</wgt>
<wgt id='15031'>0.21075E+02</wgt>
<wgt id='15032'>0.21102E+02</wgt>
<wgt id='15033'>0.21115E+02</wgt>
<wgt id='15034'>0.21091E+02</wgt>
<wgt id='15035'>0.21123E+02</wgt>
<wgt id='15036'>0.21095E+02</wgt>
<wgt id='15037'>0.21107E+02</wgt>
<wgt id='15038'>0.21095E+02</wgt>
<wgt id='15039'>0.21089E+02</wgt>
<wgt id='15040'>0.21064E+02</wgt>
<wgt id='15041'>0.21081E+02</wgt>
<wgt id='15042'>0.21091E+02</wgt>
<wgt id='15043'>0.21067E+02</wgt>
<wgt id='15044'>0.21092E+02</wgt>
<wgt id='15045'>0.21087E+02</wgt>
<wgt id='15046'>0.21059E+02</wgt>
<wgt id='15047'>0.21084E+02</wgt>
<wgt id='15048'>0.21098E+02</wgt>
<wgt id='15049'>0.21077E+02</wgt>
<wgt id='15050'>0.21090E+02</wgt>
<wgt id='15051'>0.21101E+02</wgt>
<wgt id='15052'>0.21102E+02</wgt>
<wgt id='15053'>0.21091E+02</wgt>
<wgt id='15054'>0.21079E+02</wgt>
<wgt id='15055'>0.21079E+02</wgt>
<wgt id='15056'>0.21102E+02</wgt>
<wgt id='15057'>0.21089E+02</wgt>
<wgt id='15058'>0.21071E+02</wgt>
<wgt id='15059'>0.21074E+02</wgt>
<wgt id='15060'>0.21081E+02</wgt>
<wgt id='15061'>0.21089E+02</wgt>
<wgt id='15062'>0.21093E+02</wgt>
<wgt id='15063'>0.21093E+02</wgt>
<wgt id='15064'>0.21085E+02</wgt>
<wgt id='15065'>0.21084E+02</wgt>
<wgt id='15066'>0.21086E+02</wgt>
<wgt id='15067'>0.21092E+02</wgt>
<wgt id='15068'>0.21092E+02</wgt>
<wgt id='15069'>0.21105E+02</wgt>
<wgt id='15070'>0.21083E+02</wgt>
<wgt id='15071'>0.21102E+02</wgt>
<wgt id='15072'>0.21101E+02</wgt>
<wgt id='15073'>0.21083E+02</wgt>
<wgt id='15074'>0.21090E+02</wgt>
<wgt id='15075'>0.21085E+02</wgt>
<wgt id='15076'>0.21087E+02</wgt>
<wgt id='15077'>0.21094E+02</wgt>
<wgt id='15078'>0.21091E+02</wgt>
<wgt id='15079'>0.21084E+02</wgt>
<wgt id='15080'>0.21105E+02</wgt>
<wgt id='15081'>0.21088E+02</wgt>
<wgt id='15082'>0.21094E+02</wgt>
<wgt id='15083'>0.21080E+02</wgt>
<wgt id='15084'>0.21081E+02</wgt>
<wgt id='15085'>0.21080E+02</wgt>
<wgt id='15086'>0.21092E+02</wgt>
<wgt id='15087'>0.21070E+02</wgt>
<wgt id='15088'>0.21083E+02</wgt>
<wgt id='15089'>0.21081E+02</wgt>
<wgt id='15090'>0.21091E+02</wgt>
<wgt id='15091'>0.21084E+02</wgt>
<wgt id='15092'>0.21086E+02</wgt>
<wgt id='15093'>0.21082E+02</wgt>
<wgt id='15094'>0.21086E+02</wgt>
<wgt id='15095'>0.21091E+02</wgt>
<wgt id='15096'>0.21082E+02</wgt>
<wgt id='15097'>0.21090E+02</wgt>
<wgt id='15098'>0.21088E+02</wgt>
<wgt id='15099'>0.21083E+02</wgt>
<wgt id='15100'>0.21089E+02</wgt>
<wgt id='15101'>0.21088E+02</wgt>
<wgt id='15102'>0.21086E+02</wgt>
<wgt id='15103'>0.21088E+02</wgt>
<wgt id='15104'>0.21088E+02</wgt>
<wgt id='15105'>0.21089E+02</wgt>
<wgt id='15106'>0.21088E+02</wgt>
<wgt id='15107'>0.21087E+02</wgt>
<wgt id='1500'>0.22632E+02</wgt>
<wgt id='1501'>0.21544E+02</wgt>
<wgt id='1502'>0.22655E+02</wgt>
<wgt id='1503'>0.22974E+02</wgt>
<wgt id='1504'>0.22190E+02</wgt>
<wgt id='1505'>0.21227E+02</wgt>
<wgt id='1506'>0.23011E+02</wgt>
<wgt id='1507'>0.22625E+02</wgt>
<wgt id='1508'>0.22618E+02</wgt>
<wgt id='1509'>0.22908E+02</wgt>
<wgt id='1510'>0.22374E+02</wgt>
<wgt id='1511'>0.22082E+02</wgt>
<wgt id='1512'>0.22877E+02</wgt>
<wgt id='1513'>0.22769E+02</wgt>
<wgt id='1514'>0.22638E+02</wgt>
<wgt id='1515'>0.23093E+02</wgt>
<wgt id='1516'>0.22793E+02</wgt>
<wgt id='1517'>0.22786E+02</wgt>
<wgt id='1518'>0.22632E+02</wgt>
<wgt id='1519'>0.22766E+02</wgt>
<wgt id='1520'>0.23181E+02</wgt>
<wgt id='1521'>0.22829E+02</wgt>
<wgt id='1522'>0.22384E+02</wgt>
<wgt id='1523'>0.23929E+02</wgt>
<wgt id='1524'>0.22620E+02</wgt>
<wgt id='1525'>0.22566E+02</wgt>
<wgt id='1526'>0.22510E+02</wgt>
<wgt id='1527'>0.22568E+02</wgt>
<wgt id='1528'>0.22526E+02</wgt>
<wgt id='1529'>0.22860E+02</wgt>
<wgt id='1530'>0.23150E+02</wgt>
<wgt id='1531'>0.22499E+02</wgt>
<wgt id='1532'>0.22206E+02</wgt>
<wgt id='1533'>0.22362E+02</wgt>
<wgt id='1534'>0.22625E+02</wgt>
<wgt id='1535'>0.23169E+02</wgt>
<wgt id='1536'>0.22548E+02</wgt>
<wgt id='1537'>0.23011E+02</wgt>
<wgt id='1538'>0.22402E+02</wgt>
<wgt id='1539'>0.22146E+02</wgt>
<wgt id='1540'>0.22513E+02</wgt>
<wgt id='1541'>0.22582E+02</wgt>
<wgt id='1542'>0.22570E+02</wgt>
<wgt id='1543'>0.22557E+02</wgt>
<wgt id='1544'>0.22692E+02</wgt>
<wgt id='1545'>0.22680E+02</wgt>
<wgt id='1546'>0.22775E+02</wgt>
<wgt id='1547'>0.22425E+02</wgt>
<wgt id='1548'>0.22488E+02</wgt>
<wgt id='1549'>0.22497E+02</wgt>
<wgt id='1550'>0.22451E+02</wgt>
<wgt id='1551'>0.22538E+02</wgt>
<wgt id='1552'>0.22420E+02</wgt>
<wgt id='1553'>0.22920E+02</wgt>
<wgt id='1554'>0.22603E+02</wgt>
<wgt id='1555'>0.22327E+02</wgt>
<wgt id='1556'>0.22495E+02</wgt>
<wgt id='1557'>0.22778E+02</wgt>
<wgt id='1558'>0.22360E+02</wgt>
<wgt id='1559'>0.23145E+02</wgt>
<wgt id='1560'>0.22439E+02</wgt>
<wgt id='1561'>0.22481E+02</wgt>
<wgt id='1562'>0.22814E+02</wgt>
<wgt id='1563'>0.22478E+02</wgt>
<wgt id='1564'>0.22476E+02</wgt>
<wgt id='1565'>0.22652E+02</wgt>
<wgt id='1566'>0.22665E+02</wgt>
<wgt id='1567'>0.23975E+02</wgt>
<wgt id='1568'>0.22462E+02</wgt>
<wgt id='1569'>0.22047E+02</wgt>
<wgt id='1570'>0.22321E+02</wgt>
<wgt id='1571'>0.22477E+02</wgt>
<wgt id='1572'>0.22811E+02</wgt>
<wgt id='1573'>0.21635E+02</wgt>
<wgt id='1574'>0.23005E+02</wgt>
<wgt id='1575'>0.22377E+02</wgt>
<wgt id='1576'>0.22323E+02</wgt>
<wgt id='1577'>0.22683E+02</wgt>
<wgt id='1578'>0.23047E+02</wgt>
<wgt id='1579'>0.22375E+02</wgt>
<wgt id='1580'>0.22515E+02</wgt>
<wgt id='1581'>0.22722E+02</wgt>
<wgt id='1582'>0.22202E+02</wgt>
<wgt id='1583'>0.23071E+02</wgt>
<wgt id='1584'>0.22429E+02</wgt>
<wgt id='1585'>0.22408E+02</wgt>
<wgt id='1586'>0.22532E+02</wgt>
<wgt id='1587'>0.22774E+02</wgt>
<wgt id='1588'>0.22564E+02</wgt>
<wgt id='1589'>0.23257E+02</wgt>
<wgt id='1590'>0.22484E+02</wgt>
<wgt id='1591'>0.22318E+02</wgt>
<wgt id='1592'>0.22508E+02</wgt>
<wgt id='1593'>0.22625E+02</wgt>
<wgt id='1594'>0.23112E+02</wgt>
<wgt id='1595'>0.22499E+02</wgt>
<wgt id='1596'>0.22791E+02</wgt>
<wgt id='1597'>0.22570E+02</wgt>
<wgt id='1598'>0.22821E+02</wgt>
<wgt id='1599'>0.22816E+02</wgt>
<wgt id='1600'>0.23000E+02</wgt>
<wgt id='1601'>0.22248E+02</wgt>
<wgt id='1602'>0.22880E+02</wgt>
<wgt id='1700'>0.21555E+02</wgt>
<wgt id='1800'>0.24821E+02</wgt>
<wgt id='1850'>0.30361E+02</wgt>
<wgt id='1900'>0.26251E+02</wgt>
<wgt id='1950'>0.30144E+02</wgt>
</rwgt>
</event>
<event>
      4   9999  2.16956E+01  2.28325E+01 -1.00000E+00  1.59025E-01
      21    -1     0     0   502   512  0.000000000E+00  0.000000000E+00  9.658299873E+00  9.658299873E+00  0.000000000E+00  0.00000E+00  9.000E+00
      21    -1     0     0   501   502  0.000000000E+00  0.000000000E+00 -1.317044566E+03  1.317044566E+03  0.000000000E+00  0.00000E+00  9.000E+00
      25     1     1     2     0     0 -2.020060713E+01  1.064237671E+01 -1.294024357E+03  1.300247898E+03  1.249969416E+02  0.00000E+00  9.000E+00
      21     1     1     2   501   512  2.020060713E+01 -1.064237671E+01 -1.336190946E+01  2.645496805E+01  1.526623782E-06  0.00000E+00  9.000E+00
#rwgt            1           1   68.619501027246173                1        5934           0
<rwgt>
<wgt id='1001'>0.21696E+02</wgt>
<wgt id='1002'>0.23245E+02</wgt>
<wgt id='1003'>0.19836E+02</wgt>
<wgt id='1004'>0.17069E+02</wgt>
<wgt id='1005'>0.18246E+02</wgt>
<wgt id='1006'>0.15646E+02</wgt>
<wgt id='1007'>0.28385E+02</wgt>
<wgt id='1008'>0.30486E+02</wgt>
<wgt id='1009'>0.25881E+02</wgt>
<wgt id='2000'>0.21696E+02</wgt>
<wgt id='2001'>0.21696E+02</wgt>
<wgt id='2002'>0.21562E+02</wgt>
<wgt id='2003'>0.21535E+02</wgt>
<wgt id='2004'>0.21745E+02</wgt>
<wgt id='2005'>0.21768E+02</wgt>
<wgt id='2006'>0.21667E+02</wgt>
<wgt id='2007'>0.21790E+02</wgt>
<wgt id='2008'>0.21742E+02</wgt>
<wgt id='2009'>0.21693E+02</wgt>
<wgt id='2010'>0.21627E+02</wgt>
<wgt id='2011'>0.21674E+02</wgt>
<wgt id='2012'>0.21714E+02</wgt>
<wgt id='2013'>0.21628E+02</wgt>
<wgt id='2014'>0.21641E+02</wgt>
<wgt id='2015'>0.21665E+02</wgt>
<wgt id='2016'>0.21747E+02</wgt>
<wgt id='2017'>0.21689E+02</wgt>
<wgt id='2018'>0.21636E+02</wgt>
<wgt id='2019'>0.21723E+02</wgt>
<wgt id='2020'>0.21677E+02</wgt>
<wgt id='2021'>0.21725E+02</wgt>
<wgt id='2022'>0.21649E+02</wgt>
<wgt id='2023'>0.21736E+02</wgt>
<wgt id='2024'>0.21670E+02</wgt>
<wgt id='2025'>0.21670E+02</wgt>
<wgt id='2026'>0.21701E+02</wgt>
<wgt id='2027'>0.21642E+02</wgt>
<wgt id='2028'>0.21673E+02</wgt>
<wgt id='2029'>0.21870E+02</wgt>
<wgt id='2030'>0.21769E+02</wgt>
<wgt id='2031'>0.21696E+02</wgt>
<wgt id='2032'>0.21800E+02</wgt>
<wgt id='2033'>0.21754E+02</wgt>
<wgt id='2034'>0.21574E+02</wgt>
<wgt id='2035'>0.21690E+02</wgt>
<wgt id='2036'>0.21704E+02</wgt>
<wgt id='2037'>0.21591E+02</wgt>
<wgt id='2038'>0.21710E+02</wgt>
<wgt id='2039'>0.21863E+02</wgt>
<wgt id='2040'>0.21856E+02</wgt>
<wgt id='2041'>0.21762E+02</wgt>
<wgt id='2042'>0.21508E+02</wgt>
<wgt id='2043'>0.21656E+02</wgt>
<wgt id='2044'>0.21678E+02</wgt>
<wgt id='2045'>0.21686E+02</wgt>
<wgt id='2046'>0.21714E+02</wgt>
<wgt id='2047'>0.21758E+02</wgt>
<wgt id='2048'>0.21576E+02</wgt>
<wgt id='2049'>0.21653E+02</wgt>
<wgt id='2050'>0.21682E+02</wgt>
<wgt id='2051'>0.21776E+02</wgt>
<wgt id='2052'>0.21742E+02</wgt>
<wgt id='2053'>0.21757E+02</wgt>
<wgt id='2054'>0.21715E+02</wgt>
<wgt id='2055'>0.21684E+02</wgt>
<wgt id='2056'>0.21690E+02</wgt>
<wgt id='2057'>0.21752E+02</wgt>
<wgt id='2058'>0.21678E+02</wgt>
<wgt id='2059'>0.21666E+02</wgt>
<wgt id='2060'>0.21678E+02</wgt>
<wgt id='2061'>0.21655E+02</wgt>
<wgt id='2062'>0.21690E+02</wgt>
<wgt id='2063'>0.21724E+02</wgt>
<wgt id='2064'>0.21693E+02</wgt>
<wgt id='2065'>0.21751E+02</wgt>
<wgt id='2066'>0.21736E+02</wgt>
<wgt id='2067'>0.21688E+02</wgt>
<wgt id='2068'>0.21703E+02</wgt>
<wgt id='2069'>0.21702E+02</wgt>
<wgt id='2070'>0.21637E+02</wgt>
<wgt id='2071'>0.21672E+02</wgt>
<wgt id='2072'>0.21699E+02</wgt>
<wgt id='2073'>0.21670E+02</wgt>
<wgt id='2074'>0.21659E+02</wgt>
<wgt id='2075'>0.21699E+02</wgt>
<wgt id='2076'>0.21683E+02</wgt>
<wgt id='2077'>0.21671E+02</wgt>
<wgt id='2078'>0.21705E+02</wgt>
<wgt id='2079'>0.21699E+02</wgt>
<wgt id='2080'>0.21694E+02</wgt>
<wgt id='2081'>0.21698E+02</wgt>
<wgt id='2082'>0.21711E+02</wgt>
<wgt id='2083'>0.21692E+02</wgt>
<wgt id='2084'>0.21697E+02</wgt>
<wgt id='2085'>0.21702E+02</wgt>
<wgt id='2086'>0.21703E+02</wgt>
<wgt id='2087'>0.21688E+02</wgt>
<wgt id='2088'>0.21707E+02</wgt>
<wgt id='2089'>0.21699E+02</wgt>
<wgt id='2090'>0.21719E+02</wgt>
<wgt id='2091'>0.21693E+02</wgt>
<wgt id='2092'>0.21693E+02</wgt>
<wgt id='2093'>0.21707E+02</wgt>
<wgt id='2094'>0.21678E+02</wgt>
<wgt id='2095'>0.21694E+02</wgt>
<wgt id='2096'>0.21691E+02</wgt>
<wgt id='2097'>0.21714E+02</wgt>
<wgt id='2098'>0.21683E+02</wgt>
<wgt id='2099'>0.21722E+02</wgt>
<wgt id='2100'>0.21683E+02</wgt>
<wgt id='2101'>0.21064E+02</wgt>
<wgt id='2102'>0.22500E+02</wgt>
<wgt id='2104'>0.17962E+02</wgt>
<wgt id='2105'>0.18690E+02</wgt>
<wgt id='2106'>0.19487E+02</wgt>
<wgt id='2107'>0.20079E+02</wgt>
<wgt id='2108'>0.21252E+02</wgt>
<wgt id='2109'>0.22178E+02</wgt>
<wgt id='2110'>0.23386E+02</wgt>
<wgt id='2111'>0.24437E+02</wgt>
<wgt id='3000'>0.23864E+02</wgt>
<wgt id='3001'>0.23766E+02</wgt>
<wgt id='3002'>0.24016E+02</wgt>
<wgt id='3003'>0.23692E+02</wgt>
<wgt id='3004'>0.23903E+02</wgt>
<wgt id='3005'>0.23709E+02</wgt>
<wgt id='3006'>0.23790E+02</wgt>
<wgt id='3007'>0.23755E+02</wgt>
<wgt id='3008'>0.23861E+02</wgt>
<wgt id='3009'>0.23788E+02</wgt>
<wgt id='3010'>0.23802E+02</wgt>
<wgt id='3011'>0.23862E+02</wgt>
<wgt id='3012'>0.23865E+02</wgt>
<wgt id='3013'>0.23946E+02</wgt>
<wgt id='3014'>0.23819E+02</wgt>
<wgt id='3015'>0.23831E+02</wgt>
<wgt id='3016'>0.23895E+02</wgt>
<wgt id='3017'>0.23837E+02</wgt>
<wgt id='3018'>0.23897E+02</wgt>
<wgt id='3019'>0.23868E+02</wgt>
<wgt id='3020'>0.23876E+02</wgt>
<wgt id='3021'>0.23887E+02</wgt>
<wgt id='3022'>0.23828E+02</wgt>
<wgt id='3023'>0.23803E+02</wgt>
<wgt id='3024'>0.23833E+02</wgt>
<wgt id='3025'>0.23874E+02</wgt>
<wgt id='3026'>0.23860E+02</wgt>
<wgt id='3027'>0.23884E+02</wgt>
<wgt id='3028'>0.23816E+02</wgt>
<wgt id='3029'>0.23880E+02</wgt>
<wgt id='3030'>0.23965E+02</wgt>
<wgt id='3031'>0.23884E+02</wgt>
<wgt id='3032'>0.23805E+02</wgt>
<wgt id='3033'>0.23803E+02</wgt>
<wgt id='3034'>0.23878E+02</wgt>
<wgt id='3035'>0.23614E+02</wgt>
<wgt id='3036'>0.23852E+02</wgt>
<wgt id='3037'>0.24001E+02</wgt>
<wgt id='3038'>0.23858E+02</wgt>
<wgt id='3039'>0.23798E+02</wgt>
<wgt id='3040'>0.24023E+02</wgt>
<wgt id='3041'>0.23961E+02</wgt>
<wgt id='3042'>0.23812E+02</wgt>
<wgt id='3043'>0.23804E+02</wgt>
<wgt id='3044'>0.23849E+02</wgt>
<wgt id='3045'>0.23832E+02</wgt>
<wgt id='3046'>0.24028E+02</wgt>
<wgt id='3047'>0.23883E+02</wgt>
<wgt id='3048'>0.23869E+02</wgt>
<wgt id='3049'>0.23878E+02</wgt>
<wgt id='3050'>0.23741E+02</wgt>
<wgt id='3051'>0.23896E+02</wgt>
<wgt id='3052'>0.23784E+02</wgt>
<wgt id='3053'>0.23893E+02</wgt>
<wgt id='3054'>0.23910E+02</wgt>
<wgt id='3055'>0.23747E+02</wgt>
<wgt id='3056'>0.23841E+02</wgt>
<wgt id='3057'>0.23895E+02</wgt>
<wgt id='3058'>0.23802E+02</wgt>
<wgt id='3059'>0.23855E+02</wgt>
<wgt id='3060'>0.23928E+02</wgt>
<wgt id='3061'>0.23888E+02</wgt>
<wgt id='3062'>0.23905E+02</wgt>
<wgt id='3063'>0.23821E+02</wgt>
<wgt id='3064'>0.23872E+02</wgt>
<wgt id='3065'>0.23820E+02</wgt>
<wgt id='3066'>0.23871E+02</wgt>
<wgt id='3067'>0.23789E+02</wgt>
<wgt id='3068'>0.23873E+02</wgt>
<wgt id='3069'>0.23842E+02</wgt>
<wgt id='3070'>0.23849E+02</wgt>
<wgt id='3071'>0.23838E+02</wgt>
<wgt id='3072'>0.23892E+02</wgt>
<wgt id='3073'>0.23866E+02</wgt>
<wgt id='3074'>0.23896E+02</wgt>
<wgt id='3075'>0.23892E+02</wgt>
<wgt id='3076'>0.23876E+02</wgt>
<wgt id='3077'>0.23857E+02</wgt>
<wgt id='3078'>0.23883E+02</wgt>
<wgt id='3079'>0.23836E+02</wgt>
<wgt id='3080'>0.23849E+02</wgt>
<wgt id='3081'>0.23857E+02</wgt>
<wgt id='3082'>0.23844E+02</wgt>
<wgt id='3083'>0.23862E+02</wgt>
<wgt id='3084'>0.23859E+02</wgt>
<wgt id='3085'>0.23865E+02</wgt>
<wgt id='3086'>0.23879E+02</wgt>
<wgt id='3087'>0.23845E+02</wgt>
<wgt id='3088'>0.23846E+02</wgt>
<wgt id='3089'>0.23855E+02</wgt>
<wgt id='3090'>0.23844E+02</wgt>
<wgt id='3091'>0.23839E+02</wgt>
<wgt id='3092'>0.23868E+02</wgt>
<wgt id='3093'>0.23870E+02</wgt>
<wgt id='3094'>0.23859E+02</wgt>
<wgt id='3095'>0.23875E+02</wgt>
<wgt id='3096'>0.23854E+02</wgt>
<wgt id='3097'>0.23860E+02</wgt>
<wgt id='3098'>0.23866E+02</wgt>
<wgt id='3099'>0.23876E+02</wgt>
<wgt id='3100'>0.23871E+02</wgt>
<wgt id='3101'>0.23074E+02</wgt>
<wgt id='3102'>0.24811E+02</wgt>
<wgt id='5000'>0.23727E+02</wgt>
<wgt id='5001'>0.23750E+02</wgt>
<wgt id='5002'>0.23781E+02</wgt>
<wgt id='5003'>0.23733E+02</wgt>
<wgt id='5004'>0.23963E+02</wgt>
<wgt id='5005'>0.24374E+02</wgt>
<wgt id='5006'>0.23882E+02</wgt>
<wgt id='5007'>0.23788E+02</wgt>
<wgt id='5008'>0.24000E+02</wgt>
<wgt id='5009'>0.23606E+02</wgt>
<wgt id='5010'>0.23812E+02</wgt>
<wgt id='5011'>0.24148E+02</wgt>
<wgt id='5012'>0.23273E+02</wgt>
<wgt id='5013'>0.24559E+02</wgt>
<wgt id='5014'>0.22933E+02</wgt>
<wgt id='5015'>0.23361E+02</wgt>
<wgt id='5016'>0.24683E+02</wgt>
<wgt id='5017'>0.23564E+02</wgt>
<wgt id='5018'>0.23900E+02</wgt>
<wgt id='5019'>0.23285E+02</wgt>
<wgt id='5020'>0.24130E+02</wgt>
<wgt id='5021'>0.23498E+02</wgt>
<wgt id='5022'>0.23870E+02</wgt>
<wgt id='5023'>0.23509E+02</wgt>
<wgt id='5024'>0.23977E+02</wgt>
<wgt id='5025'>0.23751E+02</wgt>
<wgt id='5026'>0.23707E+02</wgt>
<wgt id='5027'>0.23550E+02</wgt>
<wgt id='5028'>0.24014E+02</wgt>
<wgt id='5029'>0.24267E+02</wgt>
<wgt id='5030'>0.23382E+02</wgt>
<wgt id='5031'>0.23919E+02</wgt>
<wgt id='5032'>0.23437E+02</wgt>
<wgt id='5033'>0.23473E+02</wgt>
<wgt id='5034'>0.23982E+02</wgt>
<wgt id='5035'>0.23482E+02</wgt>
<wgt id='5036'>0.23950E+02</wgt>
<wgt id='5037'>0.23398E+02</wgt>
<wgt id='5038'>0.24121E+02</wgt>
<wgt id='5039'>0.24106E+02</wgt>
<wgt id='5040'>0.23554E+02</wgt>
<wgt id='5041'>0.23922E+02</wgt>
<wgt id='5042'>0.23734E+02</wgt>
<wgt id='5043'>0.23812E+02</wgt>
<wgt id='5044'>0.24052E+02</wgt>
<wgt id='5045'>0.22873E+02</wgt>
<wgt id='5046'>0.24226E+02</wgt>
<wgt id='5047'>0.22835E+02</wgt>
<wgt id='5048'>0.24172E+02</wgt>
<wgt id='5049'>0.23643E+02</wgt>
<wgt id='5050'>0.23758E+02</wgt>
<wgt id='5051'>0.23739E+02</wgt>
<wgt id='5052'>0.23652E+02</wgt>
<wgt id='5053'>0.23230E+02</wgt>
<wgt id='5054'>0.23420E+02</wgt>
<wgt id='5055'>0.23708E+02</wgt>
<wgt id='5056'>0.23790E+02</wgt>
<wgt id='5060'>0.22691E+02</wgt>
<wgt id='5070'>0.24883E+02</wgt>
<wgt id='4000'>0.25177E+02</wgt>
<wgt id='4001'>0.25101E+02</wgt>
<wgt id='4002'>0.25192E+02</wgt>
<wgt id='4003'>0.24719E+02</wgt>
<wgt id='4004'>0.25683E+02</wgt>
<wgt id='4005'>0.25222E+02</wgt>
<wgt id='4006'>0.25117E+02</wgt>
<wgt id='4007'>0.24664E+02</wgt>
<wgt id='4008'>0.25584E+02</wgt>
<wgt id='4009'>0.25495E+02</wgt>
<wgt id='4010'>0.25284E+02</wgt>
<wgt id='4011'>0.25089E+02</wgt>
<wgt id='4012'>0.25220E+02</wgt>
<wgt id='4013'>0.25595E+02</wgt>
<wgt id='4014'>0.24963E+02</wgt>
<wgt id='4015'>0.25643E+02</wgt>
<wgt id='4016'>0.24904E+02</wgt>
<wgt id='4017'>0.24773E+02</wgt>
<wgt id='4018'>0.25664E+02</wgt>
<wgt id='4019'>0.24689E+02</wgt>
<wgt id='4020'>0.25680E+02</wgt>
<wgt id='4021'>0.25059E+02</wgt>
<wgt id='4022'>0.25414E+02</wgt>
<wgt id='4023'>0.25590E+02</wgt>
<wgt id='4024'>0.24754E+02</wgt>
<wgt id='4025'>0.25252E+02</wgt>
<wgt id='4026'>0.25112E+02</wgt>
<wgt id='4027'>0.25428E+02</wgt>
<wgt id='4028'>0.24822E+02</wgt>
<wgt id='4029'>0.25439E+02</wgt>
<wgt id='4030'>0.25085E+02</wgt>
<wgt id='4031'>0.25134E+02</wgt>
<wgt id='4032'>0.25235E+02</wgt>
<wgt id='4033'>0.25268E+02</wgt>
<wgt id='4034'>0.24988E+02</wgt>
<wgt id='4035'>0.24610E+02</wgt>
<wgt id='4036'>0.25692E+02</wgt>
<wgt id='4037'>0.24658E+02</wgt>
<wgt id='4038'>0.25914E+02</wgt>
<wgt id='4039'>0.24824E+02</wgt>
<wgt id='4040'>0.25473E+02</wgt>
<wgt id='4041'>0.25090E+02</wgt>
<wgt id='4042'>0.25180E+02</wgt>
<wgt id='4043'>0.24386E+02</wgt>
<wgt id='4044'>0.25620E+02</wgt>
<wgt id='4045'>0.26182E+02</wgt>
<wgt id='4046'>0.24937E+02</wgt>
<wgt id='4047'>0.25311E+02</wgt>
<wgt id='4048'>0.25599E+02</wgt>
<wgt id='4049'>0.25604E+02</wgt>
<wgt id='4050'>0.25656E+02</wgt>
<wgt id='4051'>0.25254E+02</wgt>
<wgt id='4052'>0.25159E+02</wgt>
<wgt id='4053'>0.24481E+02</wgt>
<wgt id='4054'>0.24807E+02</wgt>
<wgt id='4055'>0.25263E+02</wgt>
<wgt id='4056'>0.25124E+02</wgt>
<wgt id='4060'>0.24106E+02</wgt>
<wgt id='4070'>0.26379E+02</wgt>
<wgt id='4080'>0.34999E+02</wgt>
<wgt id='6000'>0.24274E+02</wgt>
<wgt id='6001'>0.24334E+02</wgt>
<wgt id='6002'>0.24208E+02</wgt>
<wgt id='6003'>0.24287E+02</wgt>
<wgt id='6004'>0.24264E+02</wgt>
<wgt id='6005'>0.24247E+02</wgt>
<wgt id='6006'>0.24296E+02</wgt>
<wgt id='6007'>0.24256E+02</wgt>
<wgt id='6008'>0.24293E+02</wgt>
<wgt id='6009'>0.24420E+02</wgt>
<wgt id='6010'>0.24129E+02</wgt>
<wgt id='6011'>0.24330E+02</wgt>
<wgt id='6012'>0.24149E+02</wgt>
<wgt id='6013'>0.24241E+02</wgt>
<wgt id='6014'>0.24332E+02</wgt>
<wgt id='6015'>0.24243E+02</wgt>
<wgt id='6016'>0.24290E+02</wgt>
<wgt id='6017'>0.24098E+02</wgt>
<wgt id='6018'>0.24480E+02</wgt>
<wgt id='6019'>0.24231E+02</wgt>
<wgt id='6020'>0.24310E+02</wgt>
<wgt id='6021'>0.24208E+02</wgt>
<wgt id='6022'>0.24361E+02</wgt>
<wgt id='6023'>0.24077E+02</wgt>
<wgt id='6024'>0.24411E+02</wgt>
<wgt id='6025'>0.24707E+02</wgt>
<wgt id='6026'>0.23735E+02</wgt>
<wgt id='6027'>0.24328E+02</wgt>
<wgt id='6028'>0.24285E+02</wgt>
<wgt id='6029'>0.24066E+02</wgt>
<wgt id='6030'>0.24519E+02</wgt>
<wgt id='6031'>0.23904E+02</wgt>
<wgt id='6032'>0.24685E+02</wgt>
<wgt id='6033'>0.24432E+02</wgt>
<wgt id='6034'>0.24117E+02</wgt>
<wgt id='6035'>0.24359E+02</wgt>
<wgt id='6036'>0.24124E+02</wgt>
<wgt id='6037'>0.24303E+02</wgt>
<wgt id='6038'>0.24275E+02</wgt>
<wgt id='6039'>0.24160E+02</wgt>
<wgt id='6040'>0.24401E+02</wgt>
<wgt id='6041'>0.24088E+02</wgt>
<wgt id='6042'>0.24495E+02</wgt>
<wgt id='6043'>0.24583E+02</wgt>
<wgt id='6044'>0.24257E+02</wgt>
<wgt id='6045'>0.24224E+02</wgt>
<wgt id='6046'>0.24404E+02</wgt>
<wgt id='6047'>0.24190E+02</wgt>
<wgt id='6048'>0.24637E+02</wgt>
<wgt id='6049'>0.24173E+02</wgt>
<wgt id='6050'>0.24344E+02</wgt>
<wgt id='7000'>0.22602E+02</wgt>
<wgt id='7001'>0.22663E+02</wgt>
<wgt id='7002'>0.22523E+02</wgt>
<wgt id='7003'>0.22628E+02</wgt>
<wgt id='7004'>0.22575E+02</wgt>
<wgt id='7005'>0.22615E+02</wgt>
<wgt id='7006'>0.22597E+02</wgt>
<wgt id='7007'>0.22553E+02</wgt>
<wgt id='7008'>0.22649E+02</wgt>
<wgt id='7009'>0.22669E+02</wgt>
<wgt id='7010'>0.22538E+02</wgt>
<wgt id='7011'>0.22347E+02</wgt>
<wgt id='7012'>0.22711E+02</wgt>
<wgt id='7013'>0.22591E+02</wgt>
<wgt id='7014'>0.22616E+02</wgt>
<wgt id='7015'>0.22531E+02</wgt>
<wgt id='7016'>0.22678E+02</wgt>
<wgt id='7017'>0.22266E+02</wgt>
<wgt id='7018'>0.22787E+02</wgt>
<wgt id='7019'>0.22584E+02</wgt>
<wgt id='7020'>0.22629E+02</wgt>
<wgt id='7021'>0.22635E+02</wgt>
<wgt id='7022'>0.22577E+02</wgt>
<wgt id='7023'>0.22521E+02</wgt>
<wgt id='7024'>0.22647E+02</wgt>
<wgt id='7025'>0.22610E+02</wgt>
<wgt id='7026'>0.22586E+02</wgt>
<wgt id='7027'>0.22618E+02</wgt>
<wgt id='7028'>0.22655E+02</wgt>
<wgt id='7029'>0.22791E+02</wgt>
<wgt id='7030'>0.22066E+02</wgt>
<wgt id='7031'>0.22449E+02</wgt>
<wgt id='7032'>0.22935E+02</wgt>
<wgt id='7033'>0.22674E+02</wgt>
<wgt id='7034'>0.22494E+02</wgt>
<wgt id='7035'>0.22372E+02</wgt>
<wgt id='7036'>0.22734E+02</wgt>
<wgt id='7037'>0.22599E+02</wgt>
<wgt id='7038'>0.22661E+02</wgt>
<wgt id='7039'>0.22461E+02</wgt>
<wgt id='7040'>0.22706E+02</wgt>
<wgt id='7041'>0.22802E+02</wgt>
<wgt id='7042'>0.22356E+02</wgt>
<wgt id='7043'>0.22623E+02</wgt>
<wgt id='7044'>0.22488E+02</wgt>
<wgt id='7045'>0.22690E+02</wgt>
<wgt id='7046'>0.22673E+02</wgt>
<wgt id='7047'>0.22654E+02</wgt>
<wgt id='7048'>0.22598E+02</wgt>
<wgt id='7049'>0.22796E+02</wgt>
<wgt id='7050'>0.22602E+02</wgt>
<wgt id='7060'>0.45989E+02</wgt>
<wgt id='8000'>0.22157E+02</wgt>
<wgt id='8001'>0.22152E+02</wgt>
<wgt id='8002'>0.22163E+02</wgt>
<wgt id='8003'>0.22157E+02</wgt>
<wgt id='8004'>0.22157E+02</wgt>
<wgt id='8005'>0.22105E+02</wgt>
<wgt id='8006'>0.22169E+02</wgt>
<wgt id='8007'>0.22164E+02</wgt>
<wgt id='8008'>0.22201E+02</wgt>
<wgt id='8009'>0.22250E+02</wgt>
<wgt id='8010'>0.22147E+02</wgt>
<wgt id='8011'>0.22162E+02</wgt>
<wgt id='8012'>0.22111E+02</wgt>
<wgt id='8013'>0.22127E+02</wgt>
<wgt id='8014'>0.22191E+02</wgt>
<wgt id='8015'>0.22135E+02</wgt>
<wgt id='8016'>0.22199E+02</wgt>
<wgt id='8017'>0.22198E+02</wgt>
<wgt id='8018'>0.22241E+02</wgt>
<wgt id='8019'>0.22072E+02</wgt>
<wgt id='8020'>0.22291E+02</wgt>
<wgt id='8021'>0.22108E+02</wgt>
<wgt id='8022'>0.22402E+02</wgt>
<wgt id='8023'>0.22046E+02</wgt>
<wgt id='8024'>0.21963E+02</wgt>
<wgt id='8025'>0.21986E+02</wgt>
<wgt id='8026'>0.22140E+02</wgt>
<wgt id='8027'>0.22202E+02</wgt>
<wgt id='8028'>0.22165E+02</wgt>
<wgt id='8029'>0.22733E+02</wgt>
<wgt id='8500'>0.24494E+02</wgt>
<wgt id='8501'>0.24296E+02</wgt>
<wgt id='8502'>0.24194E+02</wgt>
<wgt id='8503'>0.24530E+02</wgt>
<wgt id='8504'>0.24490E+02</wgt>
<wgt id='8505'>0.24680E+02</wgt>
<wgt id='8506'>0.24353E+02</wgt>
<wgt id='8507'>0.24596E+02</wgt>
<wgt id='8508'>0.24448E+02</wgt>
<wgt id='8509'>0.24505E+02</wgt>
<wgt id='8510'>0.24184E+02</wgt>
<wgt id='8511'>0.24340E+02</wgt>
<wgt id='8512'>0.24790E+02</wgt>
<wgt id='8513'>0.24594E+02</wgt>
<wgt id='8514'>0.24736E+02</wgt>
<wgt id='8515'>0.24554E+02</wgt>
<wgt id='8516'>0.24466E+02</wgt>
<wgt id='8517'>0.24735E+02</wgt>
<wgt id='8518'>0.24334E+02</wgt>
<wgt id='8519'>0.24293E+02</wgt>
<wgt id='8520'>0.24187E+02</wgt>
<wgt id='8521'>0.24139E+02</wgt>
<wgt id='8522'>0.24816E+02</wgt>
<wgt id='8523'>0.24289E+02</wgt>
<wgt id='8524'>0.24448E+02</wgt>
<wgt id='8525'>0.24541E+02</wgt>
<wgt id='8526'>0.24539E+02</wgt>
<wgt id='8527'>0.24514E+02</wgt>
<wgt id='8528'>0.24431E+02</wgt>
<wgt id='8529'>0.24366E+02</wgt>
<wgt id='8530'>0.24512E+02</wgt>
<wgt id='8531'>0.24509E+02</wgt>
<wgt id='8532'>0.24491E+02</wgt>
<wgt id='8533'>0.24417E+02</wgt>
<wgt id='8534'>0.24503E+02</wgt>
<wgt id='8535'>0.24591E+02</wgt>
<wgt id='8536'>0.24480E+02</wgt>
<wgt id='8537'>0.24500E+02</wgt>
<wgt id='8538'>0.24475E+02</wgt>
<wgt id='8539'>0.24491E+02</wgt>
<wgt id='8540'>0.24512E+02</wgt>
<wgt id='8541'>0.24497E+02</wgt>
<wgt id='8542'>0.24475E+02</wgt>
<wgt id='8543'>0.24470E+02</wgt>
<wgt id='8544'>0.24518E+02</wgt>
<wgt id='8545'>0.24516E+02</wgt>
<wgt id='8546'>0.24538E+02</wgt>
<wgt id='8547'>0.24473E+02</wgt>
<wgt id='8548'>0.24458E+02</wgt>
<wgt id='8549'>0.24520E+02</wgt>
<wgt id='8550'>0.24478E+02</wgt>
<wgt id='8551'>0.24496E+02</wgt>
<wgt id='8552'>0.24492E+02</wgt>
<wgt id='8553'>0.24467E+02</wgt>
<wgt id='8554'>0.24496E+02</wgt>
<wgt id='8555'>0.24488E+02</wgt>
<wgt id='8556'>0.24483E+02</wgt>
<wgt id='8557'>0.24497E+02</wgt>
<wgt id='8558'>0.24509E+02</wgt>
<wgt id='8559'>0.24490E+02</wgt>
<wgt id='8560'>0.24468E+02</wgt>
<wgt id='8561'>0.24509E+02</wgt>
<wgt id='8562'>0.24486E+02</wgt>
<wgt id='8563'>0.24496E+02</wgt>
<wgt id='8564'>0.24483E+02</wgt>
<wgt id='8565'>0.24497E+02</wgt>
<wgt id='8566'>0.24500E+02</wgt>
<wgt id='8567'>0.24499E+02</wgt>
<wgt id='8568'>0.24507E+02</wgt>
<wgt id='8569'>0.24497E+02</wgt>
<wgt id='8570'>0.24492E+02</wgt>
<wgt id='8571'>0.24466E+02</wgt>
<wgt id='8572'>0.24490E+02</wgt>
<wgt id='8573'>0.24468E+02</wgt>
<wgt id='8574'>0.24501E+02</wgt>
<wgt id='8575'>0.24484E+02</wgt>
<wgt id='8576'>0.24486E+02</wgt>
<wgt id='8577'>0.24486E+02</wgt>
<wgt id='8578'>0.24505E+02</wgt>
<wgt id='8579'>0.24513E+02</wgt>
<wgt id='8580'>0.24481E+02</wgt>
<wgt id='8581'>0.24502E+02</wgt>
<wgt id='8582'>0.24473E+02</wgt>
<wgt id='8583'>0.24512E+02</wgt>
<wgt id='8584'>0.24511E+02</wgt>
<wgt id='8585'>0.24507E+02</wgt>
<wgt id='8586'>0.24521E+02</wgt>
<wgt id='8587'>0.24496E+02</wgt>
<wgt id='8588'>0.24488E+02</wgt>
<wgt id='8589'>0.24496E+02</wgt>
<wgt id='8590'>0.24489E+02</wgt>
<wgt id='8591'>0.24488E+02</wgt>
<wgt id='8592'>0.24491E+02</wgt>
<wgt id='8593'>0.24480E+02</wgt>
<wgt id='8594'>0.24497E+02</wgt>
<wgt id='8595'>0.24496E+02</wgt>
<wgt id='8596'>0.24484E+02</wgt>
<wgt id='8597'>0.24502E+02</wgt>
<wgt id='8598'>0.24503E+02</wgt>
<wgt id='8599'>0.24500E+02</wgt>
<wgt id='8600'>0.24493E+02</wgt>
<wgt id='8601'>0.23778E+02</wgt>
<wgt id='8602'>0.25303E+02</wgt>
<wgt id='9000'>0.22889E+02</wgt>
<wgt id='9001'>0.23037E+02</wgt>
<wgt id='9002'>0.22672E+02</wgt>
<wgt id='9003'>0.23217E+02</wgt>
<wgt id='9004'>0.23057E+02</wgt>
<wgt id='9005'>0.22875E+02</wgt>
<wgt id='9006'>0.23148E+02</wgt>
<wgt id='9007'>0.23010E+02</wgt>
<wgt id='9008'>0.22890E+02</wgt>
<wgt id='9009'>0.22983E+02</wgt>
<wgt id='9010'>0.23031E+02</wgt>
<wgt id='9011'>0.22813E+02</wgt>
<wgt id='9012'>0.22961E+02</wgt>
<wgt id='9013'>0.23347E+02</wgt>
<wgt id='9014'>0.22883E+02</wgt>
<wgt id='9015'>0.22554E+02</wgt>
<wgt id='9016'>0.22671E+02</wgt>
<wgt id='9017'>0.22910E+02</wgt>
<wgt id='9018'>0.23115E+02</wgt>
<wgt id='9019'>0.23044E+02</wgt>
<wgt id='9020'>0.23097E+02</wgt>
<wgt id='9021'>0.22415E+02</wgt>
<wgt id='9022'>0.22917E+02</wgt>
<wgt id='9023'>0.22633E+02</wgt>
<wgt id='9024'>0.22760E+02</wgt>
<wgt id='9025'>0.22945E+02</wgt>
<wgt id='9026'>0.22836E+02</wgt>
<wgt id='9027'>0.22851E+02</wgt>
<wgt id='9028'>0.22904E+02</wgt>
<wgt id='9029'>0.22967E+02</wgt>
<wgt id='9030'>0.22874E+02</wgt>
<wgt id='9031'>0.22812E+02</wgt>
<wgt id='9032'>0.22906E+02</wgt>
<wgt id='9033'>0.22910E+02</wgt>
<wgt id='9034'>0.22957E+02</wgt>
<wgt id='9035'>0.22949E+02</wgt>
<wgt id='9036'>0.22918E+02</wgt>
<wgt id='9037'>0.22896E+02</wgt>
<wgt id='9038'>0.22908E+02</wgt>
<wgt id='9039'>0.22866E+02</wgt>
<wgt id='9040'>0.22871E+02</wgt>
<wgt id='9041'>0.22882E+02</wgt>
<wgt id='9042'>0.22876E+02</wgt>
<wgt id='9043'>0.22836E+02</wgt>
<wgt id='9044'>0.22904E+02</wgt>
<wgt id='9045'>0.22875E+02</wgt>
<wgt id='9046'>0.22852E+02</wgt>
<wgt id='9047'>0.22906E+02</wgt>
<wgt id='9048'>0.22898E+02</wgt>
<wgt id='9049'>0.22869E+02</wgt>
<wgt id='9050'>0.22884E+02</wgt>
<wgt id='9051'>0.22911E+02</wgt>
<wgt id='9052'>0.22915E+02</wgt>
<wgt id='9053'>0.22899E+02</wgt>
<wgt id='9054'>0.22876E+02</wgt>
<wgt id='9055'>0.22868E+02</wgt>
<wgt id='9056'>0.22897E+02</wgt>
<wgt id='9057'>0.22882E+02</wgt>
<wgt id='9058'>0.22862E+02</wgt>
<wgt id='9059'>0.22878E+02</wgt>
<wgt id='9060'>0.22886E+02</wgt>
<wgt id='9061'>0.22881E+02</wgt>
<wgt id='9062'>0.22898E+02</wgt>
<wgt id='9063'>0.22895E+02</wgt>
<wgt id='9064'>0.22905E+02</wgt>
<wgt id='9065'>0.22878E+02</wgt>
<wgt id='9066'>0.22877E+02</wgt>
<wgt id='9067'>0.22894E+02</wgt>
<wgt id='9068'>0.22892E+02</wgt>
<wgt id='9069'>0.22912E+02</wgt>
<wgt id='9070'>0.22890E+02</wgt>
<wgt id='9071'>0.22900E+02</wgt>
<wgt id='9072'>0.22900E+02</wgt>
<wgt id='9073'>0.22883E+02</wgt>
<wgt id='9074'>0.22896E+02</wgt>
<wgt id='9075'>0.22874E+02</wgt>
<wgt id='9076'>0.22893E+02</wgt>
<wgt id='9077'>0.22896E+02</wgt>
<wgt id='9078'>0.22900E+02</wgt>
<wgt id='9079'>0.22876E+02</wgt>
<wgt id='9080'>0.22908E+02</wgt>
<wgt id='9081'>0.22892E+02</wgt>
<wgt id='9082'>0.22890E+02</wgt>
<wgt id='9083'>0.22882E+02</wgt>
<wgt id='9084'>0.22880E+02</wgt>
<wgt id='9085'>0.22879E+02</wgt>
<wgt id='9086'>0.22893E+02</wgt>
<wgt id='9087'>0.22858E+02</wgt>
<wgt id='9088'>0.22879E+02</wgt>
<wgt id='9089'>0.22880E+02</wgt>
<wgt id='9090'>0.22894E+02</wgt>
<wgt id='9091'>0.22885E+02</wgt>
<wgt id='9092'>0.22886E+02</wgt>
<wgt id='9093'>0.22881E+02</wgt>
<wgt id='9094'>0.22883E+02</wgt>
<wgt id='9095'>0.22889E+02</wgt>
<wgt id='9096'>0.22883E+02</wgt>
<wgt id='9097'>0.22894E+02</wgt>
<wgt id='9098'>0.22887E+02</wgt>
<wgt id='9099'>0.22883E+02</wgt>
<wgt id='9100'>0.22886E+02</wgt>
<wgt id='9101'>0.22191E+02</wgt>
<wgt id='9102'>0.23672E+02</wgt>
<wgt id='10000'>0.24497E+02</wgt>
<wgt id='10001'>0.24317E+02</wgt>
<wgt id='10002'>0.24313E+02</wgt>
<wgt id='10003'>0.24477E+02</wgt>
<wgt id='10004'>0.24652E+02</wgt>
<wgt id='10005'>0.24063E+02</wgt>
<wgt id='10006'>0.24229E+02</wgt>
<wgt id='10007'>0.24448E+02</wgt>
<wgt id='10008'>0.24383E+02</wgt>
<wgt id='10009'>0.24488E+02</wgt>
<wgt id='10010'>0.24407E+02</wgt>
<wgt id='10011'>0.24404E+02</wgt>
<wgt id='10012'>0.24285E+02</wgt>
<wgt id='10013'>0.24509E+02</wgt>
<wgt id='10014'>0.24539E+02</wgt>
<wgt id='10015'>0.24643E+02</wgt>
<wgt id='10016'>0.24564E+02</wgt>
<wgt id='10017'>0.24286E+02</wgt>
<wgt id='10018'>0.24565E+02</wgt>
<wgt id='10019'>0.23825E+02</wgt>
<wgt id='10020'>0.24484E+02</wgt>
<wgt id='10021'>0.24478E+02</wgt>
<wgt id='10022'>0.24634E+02</wgt>
<wgt id='10023'>0.24522E+02</wgt>
<wgt id='10024'>0.24484E+02</wgt>
<wgt id='10025'>0.24487E+02</wgt>
<wgt id='10026'>0.24536E+02</wgt>
<wgt id='10027'>0.24510E+02</wgt>
<wgt id='10028'>0.24577E+02</wgt>
<wgt id='10029'>0.24484E+02</wgt>
<wgt id='10030'>0.24492E+02</wgt>
<wgt id='10031'>0.23778E+02</wgt>
<wgt id='10032'>0.25303E+02</wgt>
<wgt id='11000'>0.22890E+02</wgt>
<wgt id='11001'>0.22677E+02</wgt>
<wgt id='11002'>0.22641E+02</wgt>
<wgt id='11003'>0.22914E+02</wgt>
<wgt id='11004'>0.22379E+02</wgt>
<wgt id='11005'>0.23234E+02</wgt>
<wgt id='11006'>0.22918E+02</wgt>
<wgt id='11007'>0.22984E+02</wgt>
<wgt id='11008'>0.22890E+02</wgt>
<wgt id='11009'>0.23003E+02</wgt>
<wgt id='11010'>0.23107E+02</wgt>
<wgt id='11011'>0.22881E+02</wgt>
<wgt id='11012'>0.22796E+02</wgt>
<wgt id='11013'>0.22840E+02</wgt>
<wgt id='11014'>0.22870E+02</wgt>
<wgt id='11015'>0.22696E+02</wgt>
<wgt id='11016'>0.22983E+02</wgt>
<wgt id='11017'>0.22931E+02</wgt>
<wgt id='11018'>0.22905E+02</wgt>
<wgt id='11019'>0.23000E+02</wgt>
<wgt id='11020'>0.22898E+02</wgt>
<wgt id='11021'>0.22959E+02</wgt>
<wgt id='11022'>0.22630E+02</wgt>
<wgt id='11023'>0.22911E+02</wgt>
<wgt id='11024'>0.22689E+02</wgt>
<wgt id='11025'>0.22880E+02</wgt>
<wgt id='11026'>0.22883E+02</wgt>
<wgt id='11027'>0.23039E+02</wgt>
<wgt id='11028'>0.22847E+02</wgt>
<wgt id='11029'>0.22279E+02</wgt>
<wgt id='11030'>0.22883E+02</wgt>
<wgt id='11031'>0.22191E+02</wgt>
<wgt id='11032'>0.23672E+02</wgt>
<wgt id='12000'>0.19526E+02</wgt>
<wgt id='12001'>0.19506E+02</wgt>
<wgt id='12002'>0.19547E+02</wgt>
<wgt id='12003'>0.19570E+02</wgt>
<wgt id='12004'>0.19482E+02</wgt>
<wgt id='12005'>0.19521E+02</wgt>
<wgt id='12006'>0.19532E+02</wgt>
<wgt id='12007'>0.19557E+02</wgt>
<wgt id='12008'>0.19496E+02</wgt>
<wgt id='12009'>0.19510E+02</wgt>
<wgt id='12010'>0.19544E+02</wgt>
<wgt id='12011'>0.19386E+02</wgt>
<wgt id='12012'>0.19660E+02</wgt>
<wgt id='12013'>0.19537E+02</wgt>
<wgt id='12014'>0.19515E+02</wgt>
<wgt id='12015'>0.19688E+02</wgt>
<wgt id='12016'>0.19413E+02</wgt>
<wgt id='12017'>0.19575E+02</wgt>
<wgt id='12018'>0.19462E+02</wgt>
<wgt id='12019'>0.19791E+02</wgt>
<wgt id='12020'>0.19280E+02</wgt>
<wgt id='12021'>0.19545E+02</wgt>
<wgt id='12022'>0.19498E+02</wgt>
<wgt id='12023'>0.19246E+02</wgt>
<wgt id='12024'>0.19790E+02</wgt>
<wgt id='12025'>0.19235E+02</wgt>
<wgt id='12026'>0.19834E+02</wgt>
<wgt id='12027'>0.19942E+02</wgt>
<wgt id='12028'>0.19169E+02</wgt>
<wgt id='12050'>0.19526E+02</wgt>
<wgt id='12051'>0.19615E+02</wgt>
<wgt id='12052'>0.19387E+02</wgt>
<wgt id='12053'>0.19613E+02</wgt>
<wgt id='12054'>0.19435E+02</wgt>
<wgt id='12055'>0.19254E+02</wgt>
<wgt id='12056'>0.20271E+02</wgt>
<wgt id='12057'>0.19573E+02</wgt>
<wgt id='12058'>0.19508E+02</wgt>
<wgt id='12059'>0.19664E+02</wgt>
<wgt id='12060'>0.19408E+02</wgt>
<wgt id='12061'>0.19359E+02</wgt>
<wgt id='12062'>0.19586E+02</wgt>
<wgt id='12063'>0.20004E+02</wgt>
<wgt id='13000'>0.22223E+02</wgt>
<wgt id='13001'>0.22206E+02</wgt>
<wgt id='13002'>0.22235E+02</wgt>
<wgt id='13003'>0.22265E+02</wgt>
<wgt id='13004'>0.22176E+02</wgt>
<wgt id='13005'>0.22249E+02</wgt>
<wgt id='13006'>0.22192E+02</wgt>
<wgt id='13007'>0.22285E+02</wgt>
<wgt id='13008'>0.22155E+02</wgt>
<wgt id='13009'>0.22125E+02</wgt>
<wgt id='13010'>0.22315E+02</wgt>
<wgt id='13011'>0.22304E+02</wgt>
<wgt id='13012'>0.22139E+02</wgt>
<wgt id='13013'>0.22217E+02</wgt>
<wgt id='13014'>0.22226E+02</wgt>
<wgt id='13015'>0.22338E+02</wgt>
<wgt id='13016'>0.22155E+02</wgt>
<wgt id='13017'>0.22155E+02</wgt>
<wgt id='13018'>0.22285E+02</wgt>
<wgt id='13019'>0.22384E+02</wgt>
<wgt id='13020'>0.22060E+02</wgt>
<wgt id='13021'>0.22626E+02</wgt>
<wgt id='13022'>0.21816E+02</wgt>
<wgt id='13023'>0.21813E+02</wgt>
<wgt id='13024'>0.22627E+02</wgt>
<wgt id='13025'>0.21724E+02</wgt>
<wgt id='13026'>0.22675E+02</wgt>
<wgt id='13027'>0.22011E+02</wgt>
<wgt id='13028'>0.22463E+02</wgt>
<wgt id='13050'>0.22223E+02</wgt>
<wgt id='13051'>0.22268E+02</wgt>
<wgt id='13052'>0.22003E+02</wgt>
<wgt id='13053'>0.22265E+02</wgt>
<wgt id='13054'>0.22211E+02</wgt>
<wgt id='13055'>0.21104E+02</wgt>
<wgt id='13056'>0.22827E+02</wgt>
<wgt id='13057'>0.22240E+02</wgt>
<wgt id='13058'>0.22234E+02</wgt>
<wgt id='13059'>0.22382E+02</wgt>
<wgt id='13060'>0.20940E+02</wgt>
<wgt id='13061'>0.22339E+02</wgt>
<wgt id='13062'>0.22137E+02</wgt>
<wgt id='13063'>0.22897E+02</wgt>
<wgt id='14000'>0.25073E+02</wgt>
<wgt id='14001'>0.25070E+02</wgt>
<wgt id='14002'>0.25067E+02</wgt>
<wgt id='14003'>0.25064E+02</wgt>
<wgt id='14004'>0.25061E+02</wgt>
<wgt id='14005'>0.25058E+02</wgt>
<wgt id='14006'>0.25055E+02</wgt>
<wgt id='14007'>0.25051E+02</wgt>
<wgt id='14008'>0.25048E+02</wgt>
<wgt id='14009'>0.25045E+02</wgt>
<wgt id='14010'>0.25042E+02</wgt>
<wgt id='14011'>0.25039E+02</wgt>
<wgt id='14012'>0.25036E+02</wgt>
<wgt id='14013'>0.25032E+02</wgt>
<wgt id='14014'>0.25029E+02</wgt>
<wgt id='14015'>0.25026E+02</wgt>
<wgt id='14016'>0.25023E+02</wgt>
<wgt id='14017'>0.25020E+02</wgt>
<wgt id='14018'>0.25017E+02</wgt>
<wgt id='14019'>0.25014E+02</wgt>
<wgt id='14020'>0.25011E+02</wgt>
<wgt id='14021'>0.25008E+02</wgt>
<wgt id='14022'>0.25004E+02</wgt>
<wgt id='14023'>0.25001E+02</wgt>
<wgt id='14024'>0.24998E+02</wgt>
<wgt id='14025'>0.24995E+02</wgt>
<wgt id='14026'>0.24992E+02</wgt>
<wgt id='14027'>0.24988E+02</wgt>
<wgt id='14028'>0.24986E+02</wgt>
<wgt id='14029'>0.24983E+02</wgt>
<wgt id='14030'>0.24979E+02</wgt>
<wgt id='15000'>0.22643E+02</wgt>
<wgt id='15001'>0.22788E+02</wgt>
<wgt id='15002'>0.22430E+02</wgt>
<wgt id='15003'>0.22967E+02</wgt>
<wgt id='15004'>0.22810E+02</wgt>
<wgt id='15005'>0.22630E+02</wgt>
<wgt id='15006'>0.22900E+02</wgt>
<wgt id='15007'>0.22765E+02</wgt>
<wgt id='15008'>0.22644E+02</wgt>
<wgt id='15009'>0.22735E+02</wgt>
<wgt id='15010'>0.22783E+02</wgt>
<wgt id='15011'>0.22570E+02</wgt>
<wgt id='15012'>0.22715E+02</wgt>
<wgt id='15013'>0.23094E+02</wgt>
<wgt id='15014'>0.22638E+02</wgt>
<wgt id='15015'>0.22312E+02</wgt>
<wgt id='15016'>0.22432E+02</wgt>
<wgt id='15017'>0.22661E+02</wgt>
<wgt id='15018'>0.22865E+02</wgt>
<wgt id='15019'>0.22798E+02</wgt>
<wgt id='15020'>0.22849E+02</wgt>
<wgt id='15021'>0.22176E+02</wgt>
<wgt id='15022'>0.22672E+02</wgt>
<wgt id='15023'>0.22388E+02</wgt>
<wgt id='15024'>0.22514E+02</wgt>
<wgt id='15025'>0.22699E+02</wgt>
<wgt id='15026'>0.22589E+02</wgt>
<wgt id='15027'>0.22607E+02</wgt>
<wgt id='15028'>0.22661E+02</wgt>
<wgt id='15029'>0.22720E+02</wgt>
<wgt id='15030'>0.22628E+02</wgt>
<wgt id='15031'>0.22569E+02</wgt>
<wgt id='15032'>0.22660E+02</wgt>
<wgt id='15033'>0.22665E+02</wgt>
<wgt id='15034'>0.22709E+02</wgt>
<wgt id='15035'>0.22702E+02</wgt>
<wgt id='15036'>0.22671E+02</wgt>
<wgt id='15037'>0.22652E+02</wgt>
<wgt id='15038'>0.22663E+02</wgt>
<wgt id='15039'>0.22621E+02</wgt>
<wgt id='15040'>0.22624E+02</wgt>
<wgt id='15041'>0.22637E+02</wgt>
<wgt id='15042'>0.22632E+02</wgt>
<wgt id='15043'>0.22593E+02</wgt>
<wgt id='15044'>0.22658E+02</wgt>
<wgt id='15045'>0.22631E+02</wgt>
<wgt id='15046'>0.22608E+02</wgt>
<wgt id='15047'>0.22660E+02</wgt>
<wgt id='15048'>0.22653E+02</wgt>
<wgt id='15049'>0.22624E+02</wgt>
<wgt id='15050'>0.22638E+02</wgt>
<wgt id='15051'>0.22665E+02</wgt>
<wgt id='15052'>0.22669E+02</wgt>
<wgt id='15053'>0.22654E+02</wgt>
<wgt id='15054'>0.22630E+02</wgt>
<wgt id='15055'>0.22623E+02</wgt>
<wgt id='15056'>0.22651E+02</wgt>
<wgt id='15057'>0.22636E+02</wgt>
<wgt id='15058'>0.22618E+02</wgt>
<wgt id='15059'>0.22632E+02</wgt>
<wgt id='15060'>0.22641E+02</wgt>
<wgt id='15061'>0.22636E+02</wgt>
<wgt id='15062'>0.22652E+02</wgt>
<wgt id='15063'>0.22649E+02</wgt>
<wgt id='15064'>0.22659E+02</wgt>
<wgt id='15065'>0.22633E+02</wgt>
<wgt id='15066'>0.22632E+02</wgt>
<wgt id='15067'>0.22647E+02</wgt>
<wgt id='15068'>0.22646E+02</wgt>
<wgt id='15069'>0.22667E+02</wgt>
<wgt id='15070'>0.22644E+02</wgt>
<wgt id='15071'>0.22654E+02</wgt>
<wgt id='15072'>0.22655E+02</wgt>
<wgt id='15073'>0.22638E+02</wgt>
<wgt id='15074'>0.22650E+02</wgt>
<wgt id='15075'>0.22631E+02</wgt>
<wgt id='15076'>0.22647E+02</wgt>
<wgt id='15077'>0.22651E+02</wgt>
<wgt id='15078'>0.22654E+02</wgt>
<wgt id='15079'>0.22632E+02</wgt>
<wgt id='15080'>0.22662E+02</wgt>
<wgt id='15081'>0.22646E+02</wgt>
<wgt id='15082'>0.22645E+02</wgt>
<wgt id='15083'>0.22637E+02</wgt>
<wgt id='15084'>0.22633E+02</wgt>
<wgt id='15085'>0.22632E+02</wgt>
<wgt id='15086'>0.22648E+02</wgt>
<wgt id='15087'>0.22614E+02</wgt>
<wgt id='15088'>0.22633E+02</wgt>
<wgt id='15089'>0.22634E+02</wgt>
<wgt id='15090'>0.22648E+02</wgt>
<wgt id='15091'>0.22640E+02</wgt>
<wgt id='15092'>0.22640E+02</wgt>
<wgt id='15093'>0.22636E+02</wgt>
<wgt id='15094'>0.22638E+02</wgt>
<wgt id='15095'>0.22644E+02</wgt>
<wgt id='15096'>0.22637E+02</wgt>
<wgt id='15097'>0.22647E+02</wgt>
<wgt id='15098'>0.22642E+02</wgt>
<wgt id='15099'>0.22637E+02</wgt>
<wgt id='15100'>0.22641E+02</wgt>
<wgt id='15101'>0.22643E+02</wgt>
<wgt id='15102'>0.22641E+02</wgt>
<wgt id='15103'>0.22644E+02</wgt>
<wgt id='15104'>0.22644E+02</wgt>
<wgt id='15105'>0.22644E+02</wgt>
<wgt id='15106'>0.22643E+02</wgt>
<wgt id='15107'>0.22642E+02</wgt>
<wgt id='1500'>0.24033E+02</wgt>
<wgt id='1501'>0.22951E+02</wgt>
<wgt id='1502'>0.24216E+02</wgt>
<wgt id='1503'>0.24226E+02</wgt>
<wgt id='1504'>0.22630E+02</wgt>
<wgt id='1505'>0.23263E+02</wgt>
<wgt id='1506'>0.23939E+02</wgt>
<wgt id='1507'>0.23929E+02</wgt>
<wgt id='1508'>0.24536E+02</wgt>
<wgt id='1509'>0.23389E+02</wgt>
<wgt id='1510'>0.25344E+02</wgt>
<wgt id='1511'>0.24860E+02</wgt>
<wgt id='1512'>0.24015E+02</wgt>
<wgt id='1513'>0.24837E+02</wgt>
<wgt id='1514'>0.26242E+02</wgt>
<wgt id='1515'>0.24602E+02</wgt>
<wgt id='1516'>0.23875E+02</wgt>
<wgt id='1517'>0.25366E+02</wgt>
<wgt id='1518'>0.24237E+02</wgt>
<wgt id='1519'>0.23519E+02</wgt>
<wgt id='1520'>0.23100E+02</wgt>
<wgt id='1521'>0.23945E+02</wgt>
<wgt id='1522'>0.23925E+02</wgt>
<wgt id='1523'>0.23856E+02</wgt>
<wgt id='1524'>0.23117E+02</wgt>
<wgt id='1525'>0.23961E+02</wgt>
<wgt id='1526'>0.22628E+02</wgt>
<wgt id='1527'>0.25272E+02</wgt>
<wgt id='1528'>0.24658E+02</wgt>
<wgt id='1529'>0.24030E+02</wgt>
<wgt id='1530'>0.22879E+02</wgt>
<wgt id='1531'>0.23717E+02</wgt>
<wgt id='1532'>0.24392E+02</wgt>
<wgt id='1533'>0.23748E+02</wgt>
<wgt id='1534'>0.22439E+02</wgt>
<wgt id='1535'>0.25449E+02</wgt>
<wgt id='1536'>0.24004E+02</wgt>
<wgt id='1537'>0.24790E+02</wgt>
<wgt id='1538'>0.24170E+02</wgt>
<wgt id='1539'>0.23272E+02</wgt>
<wgt id='1540'>0.23667E+02</wgt>
<wgt id='1541'>0.23656E+02</wgt>
<wgt id='1542'>0.22986E+02</wgt>
<wgt id='1543'>0.23148E+02</wgt>
<wgt id='1544'>0.23549E+02</wgt>
<wgt id='1545'>0.25008E+02</wgt>
<wgt id='1546'>0.23358E+02</wgt>
<wgt id='1547'>0.24352E+02</wgt>
<wgt id='1548'>0.24154E+02</wgt>
<wgt id='1549'>0.24812E+02</wgt>
<wgt id='1550'>0.24361E+02</wgt>
<wgt id='1551'>0.23922E+02</wgt>
<wgt id='1552'>0.24120E+02</wgt>
<wgt id='1553'>0.22153E+02</wgt>
<wgt id='1554'>0.24082E+02</wgt>
<wgt id='1555'>0.24191E+02</wgt>
<wgt id='1556'>0.24961E+02</wgt>
<wgt id='1557'>0.24012E+02</wgt>
<wgt id='1558'>0.24630E+02</wgt>
<wgt id='1559'>0.23835E+02</wgt>
<wgt id='1560'>0.24042E+02</wgt>
<wgt id='1561'>0.24213E+02</wgt>
<wgt id='1562'>0.23880E+02</wgt>
<wgt id='1563'>0.23561E+02</wgt>
<wgt id='1564'>0.25160E+02</wgt>
<wgt id='1565'>0.23351E+02</wgt>
<wgt id='1566'>0.23967E+02</wgt>
<wgt id='1567'>0.24240E+02</wgt>
<wgt id='1568'>0.24484E+02</wgt>
<wgt id='1569'>0.24184E+02</wgt>
<wgt id='1570'>0.24499E+02</wgt>
<wgt id='1571'>0.23435E+02</wgt>
<wgt id='1572'>0.23699E+02</wgt>
<wgt id='1573'>0.24168E+02</wgt>
<wgt id='1574'>0.22915E+02</wgt>
<wgt id='1575'>0.24483E+02</wgt>
<wgt id='1576'>0.23551E+02</wgt>
<wgt id='1577'>0.23580E+02</wgt>
<wgt id='1578'>0.23844E+02</wgt>
<wgt id='1579'>0.23886E+02</wgt>
<wgt id='1580'>0.24057E+02</wgt>
<wgt id='1581'>0.24161E+02</wgt>
<wgt id='1582'>0.24181E+02</wgt>
<wgt id='1583'>0.22715E+02</wgt>
<wgt id='1584'>0.24604E+02</wgt>
<wgt id='1585'>0.24609E+02</wgt>
<wgt id='1586'>0.24480E+02</wgt>
<wgt id='1587'>0.24956E+02</wgt>
<wgt id='1588'>0.24358E+02</wgt>
<wgt id='1589'>0.23787E+02</wgt>
<wgt id='1590'>0.23930E+02</wgt>
<wgt id='1591'>0.24171E+02</wgt>
<wgt id='1592'>0.23302E+02</wgt>
<wgt id='1593'>0.24502E+02</wgt>
<wgt id='1594'>0.23285E+02</wgt>
<wgt id='1595'>0.26054E+02</wgt>
<wgt id='1596'>0.23441E+02</wgt>
<wgt id='1597'>0.23769E+02</wgt>
<wgt id='1598'>0.23699E+02</wgt>
<wgt id='1599'>0.24250E+02</wgt>
<wgt id='1600'>0.25173E+02</wgt>
<wgt id='1601'>0.23551E+02</wgt>
<wgt id='1602'>0.24524E+02</wgt>
<wgt id='1700'>0.22309E+02</wgt>
<wgt id='1800'>0.27946E+02</wgt>
<wgt id='1850'>0.35301E+02</wgt>
<wgt id='1900'>0.30819E+02</wgt>
<wgt id='1950'>0.35701E+02</wgt>
</rwgt>
</event>
<event>
      4   9999  2.16956E+01  1.79058E+01 -1.00000E+00  1.67391E-01
      21    -1     0     0   502   501  0.000000000E+00  0.000000000E+00  1.811869039E+03  1.811869039E+03  0.000000000E+00  0.00000E+00  9.000E+00
      21    -1     0     0   511   502  0.000000000E+00  0.000000000E+00 -3.293430854E+00  3.293430854E+00  0.000000000E+00  0.00000E+00  9.000E+00
      25     1     1     2     0     0  1.639057723E+01  7.208679193E+00  1.728623202E+03  1.733229550E+03  1.250035323E+02  0.00000E+00  9.000E+00
      21     1     1     2   511   501 -1.639057723E+01 -7.208679193E+00  7.995240669E+01  8.193292021E+01  1.651812370E-06  0.00000E+00  9.000E+00
#rwgt            1           1   50.837302157672717                1        6124           0
<rwgt>
<wgt id='1001'>0.21696E+02</wgt>
<wgt id='1002'>0.17114E+02</wgt>
<wgt id='1003'>0.28621E+02</wgt>
<wgt id='1004'>0.17301E+02</wgt>
<wgt id='1005'>0.13844E+02</wgt>
<wgt id='1006'>0.22513E+02</wgt>
<wgt id='1007'>0.27964E+02</wgt>
<wgt id='1008'>0.21703E+02</wgt>
<wgt id='1009'>0.37454E+02</wgt>
<wgt id='2000'>0.21696E+02</wgt>
<wgt id='2001'>0.21687E+02</wgt>
<wgt id='2002'>0.21628E+02</wgt>
<wgt id='2003'>0.21594E+02</wgt>
<wgt id='2004'>0.21774E+02</wgt>
<wgt id='2005'>0.21753E+02</wgt>
<wgt id='2006'>0.21696E+02</wgt>
<wgt id='2007'>0.21759E+02</wgt>
<wgt id='2008'>0.21639E+02</wgt>
<wgt id='2009'>0.21737E+02</wgt>
<wgt id='2010'>0.21639E+02</wgt>
<wgt id='2011'>0.21552E+02</wgt>
<wgt id='2012'>0.21591E+02</wgt>
<wgt id='2013'>0.21496E+02</wgt>
<wgt id='2014'>0.21598E+02</wgt>
<wgt id='2015'>0.21647E+02</wgt>
<wgt id='2016'>0.21763E+02</wgt>
<wgt id='2017'>0.21697E+02</wgt>
<wgt id='2018'>0.21621E+02</wgt>
<wgt id='2019'>0.21701E+02</wgt>
<wgt id='2020'>0.21640E+02</wgt>
<wgt id='2021'>0.21765E+02</wgt>
<wgt id='2022'>0.21707E+02</wgt>
<wgt id='2023'>0.21762E+02</wgt>
<wgt id='2024'>0.21616E+02</wgt>
<wgt id='2025'>0.21731E+02</wgt>
<wgt id='2026'>0.21812E+02</wgt>
<wgt id='2027'>0.21648E+02</wgt>
<wgt id='2028'>0.21613E+02</wgt>
<wgt id='2029'>0.21894E+02</wgt>
<wgt id='2030'>0.21687E+02</wgt>
<wgt id='2031'>0.21692E+02</wgt>
<wgt id='2032'>0.21660E+02</wgt>
<wgt id='2033'>0.21645E+02</wgt>
<wgt id='2034'>0.21723E+02</wgt>
<wgt id='2035'>0.21785E+02</wgt>
<wgt id='2036'>0.21748E+02</wgt>
<wgt id='2037'>0.21679E+02</wgt>
<wgt id='2038'>0.21664E+02</wgt>
<wgt id='2039'>0.21546E+02</wgt>
<wgt id='2040'>0.21699E+02</wgt>
<wgt id='2041'>0.21750E+02</wgt>
<wgt id='2042'>0.21874E+02</wgt>
<wgt id='2043'>0.21460E+02</wgt>
<wgt id='2044'>0.21651E+02</wgt>
<wgt id='2045'>0.21718E+02</wgt>
<wgt id='2046'>0.21852E+02</wgt>
<wgt id='2047'>0.21760E+02</wgt>
<wgt id='2048'>0.21603E+02</wgt>
<wgt id='2049'>0.21615E+02</wgt>
<wgt id='2050'>0.21748E+02</wgt>
<wgt id='2051'>0.21478E+02</wgt>
<wgt id='2052'>0.21578E+02</wgt>
<wgt id='2053'>0.21650E+02</wgt>
<wgt id='2054'>0.21699E+02</wgt>
<wgt id='2055'>0.21757E+02</wgt>
<wgt id='2056'>0.21638E+02</wgt>
<wgt id='2057'>0.21510E+02</wgt>
<wgt id='2058'>0.21689E+02</wgt>
<wgt id='2059'>0.21716E+02</wgt>
<wgt id='2060'>0.21727E+02</wgt>
<wgt id='2061'>0.21677E+02</wgt>
<wgt id='2062'>0.21610E+02</wgt>
<wgt id='2063'>0.21746E+02</wgt>
<wgt id='2064'>0.21700E+02</wgt>
<wgt id='2065'>0.21678E+02</wgt>
<wgt id='2066'>0.21760E+02</wgt>
<wgt id='2067'>0.21688E+02</wgt>
<wgt id='2068'>0.21677E+02</wgt>
<wgt id='2069'>0.21775E+02</wgt>
<wgt id='2070'>0.21590E+02</wgt>
<wgt id='2071'>0.21698E+02</wgt>
<wgt id='2072'>0.21695E+02</wgt>
<wgt id='2073'>0.21599E+02</wgt>
<wgt id='2074'>0.21681E+02</wgt>
<wgt id='2075'>0.21640E+02</wgt>
<wgt id='2076'>0.21770E+02</wgt>
<wgt id='2077'>0.21558E+02</wgt>
<wgt id='2078'>0.21718E+02</wgt>
<wgt id='2079'>0.21702E+02</wgt>
<wgt id='2080'>0.21761E+02</wgt>
<wgt id='2081'>0.21726E+02</wgt>
<wgt id='2082'>0.21748E+02</wgt>
<wgt id='2083'>0.21717E+02</wgt>
<wgt id='2084'>0.21682E+02</wgt>
<wgt id='2085'>0.21748E+02</wgt>
<wgt id='2086'>0.21707E+02</wgt>
<wgt id='2087'>0.21645E+02</wgt>
<wgt id='2088'>0.21709E+02</wgt>
<wgt id='2089'>0.21631E+02</wgt>
<wgt id='2090'>0.21738E+02</wgt>
<wgt id='2091'>0.21722E+02</wgt>
<wgt id='2092'>0.21685E+02</wgt>
<wgt id='2093'>0.21725E+02</wgt>
<wgt id='2094'>0.21685E+02</wgt>
<wgt id='2095'>0.21723E+02</wgt>
<wgt id='2096'>0.21659E+02</wgt>
<wgt id='2097'>0.21757E+02</wgt>
<wgt id='2098'>0.21665E+02</wgt>
<wgt id='2099'>0.21713E+02</wgt>
<wgt id='2100'>0.21698E+02</wgt>
<wgt id='2101'>0.20652E+02</wgt>
<wgt id='2102'>0.22990E+02</wgt>
<wgt id='2104'>0.16924E+02</wgt>
<wgt id='2105'>0.17891E+02</wgt>
<wgt id='2106'>0.18766E+02</wgt>
<wgt id='2107'>0.19560E+02</wgt>
<wgt id='2108'>0.21124E+02</wgt>
<wgt id='2109'>0.22245E+02</wgt>
<wgt id='2110'>0.24022E+02</wgt>
<wgt id='2111'>0.25400E+02</wgt>
<wgt id='3000'>0.24105E+02</wgt>
<wgt id='3001'>0.24043E+02</wgt>
<wgt id='3002'>0.24126E+02</wgt>
<wgt id='3003'>0.24046E+02</wgt>
<wgt id='3004'>0.24193E+02</wgt>
<wgt id='3005'>0.24038E+02</wgt>
<wgt id='3006'>0.24069E+02</wgt>
<wgt id='3007'>0.24112E+02</wgt>
<wgt id='3008'>0.24128E+02</wgt>
<wgt id='3009'>0.24163E+02</wgt>
<wgt id='3010'>0.24143E+02</wgt>
<wgt id='3011'>0.24027E+02</wgt>
<wgt id='3012'>0.24002E+02</wgt>
<wgt id='3013'>0.24294E+02</wgt>
<wgt id='3014'>0.24054E+02</wgt>
<wgt id='3015'>0.23990E+02</wgt>
<wgt id='3016'>0.24085E+02</wgt>
<wgt id='3017'>0.24016E+02</wgt>
<wgt id='3018'>0.24160E+02</wgt>
<wgt id='3019'>0.24235E+02</wgt>
<wgt id='3020'>0.24172E+02</wgt>
<wgt id='3021'>0.24135E+02</wgt>
<wgt id='3022'>0.24112E+02</wgt>
<wgt id='3023'>0.24123E+02</wgt>
<wgt id='3024'>0.24073E+02</wgt>
<wgt id='3025'>0.24176E+02</wgt>
<wgt id='3026'>0.24154E+02</wgt>
<wgt id='3027'>0.24115E+02</wgt>
<wgt id='3028'>0.24031E+02</wgt>
<wgt id='3029'>0.23944E+02</wgt>
<wgt id='3030'>0.24322E+02</wgt>
<wgt id='3031'>0.24181E+02</wgt>
<wgt id='3032'>0.24163E+02</wgt>
<wgt id='3033'>0.24220E+02</wgt>
<wgt id='3034'>0.24061E+02</wgt>
<wgt id='3035'>0.24303E+02</wgt>
<wgt id='3036'>0.24080E+02</wgt>
<wgt id='3037'>0.24120E+02</wgt>
<wgt id='3038'>0.24083E+02</wgt>
<wgt id='3039'>0.24074E+02</wgt>
<wgt id='3040'>0.24025E+02</wgt>
<wgt id='3041'>0.24094E+02</wgt>
<wgt id='3042'>0.24202E+02</wgt>
<wgt id='3043'>0.24286E+02</wgt>
<wgt id='3044'>0.24028E+02</wgt>
<wgt id='3045'>0.24023E+02</wgt>
<wgt id='3046'>0.24144E+02</wgt>
<wgt id='3047'>0.24204E+02</wgt>
<wgt id='3048'>0.23913E+02</wgt>
<wgt id='3049'>0.24116E+02</wgt>
<wgt id='3050'>0.24040E+02</wgt>
<wgt id='3051'>0.24182E+02</wgt>
<wgt id='3052'>0.24088E+02</wgt>
<wgt id='3053'>0.24040E+02</wgt>
<wgt id='3054'>0.24119E+02</wgt>
<wgt id='3055'>0.24357E+02</wgt>
<wgt id='3056'>0.24007E+02</wgt>
<wgt id='3057'>0.24050E+02</wgt>
<wgt id='3058'>0.24179E+02</wgt>
<wgt id='3059'>0.23987E+02</wgt>
<wgt id='3060'>0.24191E+02</wgt>
<wgt id='3061'>0.23985E+02</wgt>
<wgt id='3062'>0.24110E+02</wgt>
<wgt id='3063'>0.23965E+02</wgt>
<wgt id='3064'>0.24168E+02</wgt>
<wgt id='3065'>0.24001E+02</wgt>
<wgt id='3066'>0.24152E+02</wgt>
<wgt id='3067'>0.24072E+02</wgt>
<wgt id='3068'>0.24108E+02</wgt>
<wgt id='3069'>0.24041E+02</wgt>
<wgt id='3070'>0.24098E+02</wgt>
<wgt id='3071'>0.24115E+02</wgt>
<wgt id='3072'>0.24073E+02</wgt>
<wgt id='3073'>0.24100E+02</wgt>
<wgt id='3074'>0.24241E+02</wgt>
<wgt id='3075'>0.24096E+02</wgt>
<wgt id='3076'>0.24176E+02</wgt>
<wgt id='3077'>0.24193E+02</wgt>
<wgt id='3078'>0.24119E+02</wgt>
<wgt id='3079'>0.23963E+02</wgt>
<wgt id='3080'>0.24062E+02</wgt>
<wgt id='3081'>0.24064E+02</wgt>
<wgt id='3082'>0.24039E+02</wgt>
<wgt id='3083'>0.24027E+02</wgt>
<wgt id='3084'>0.24042E+02</wgt>
<wgt id='3085'>0.24186E+02</wgt>
<wgt id='3086'>0.24012E+02</wgt>
<wgt id='3087'>0.24014E+02</wgt>
<wgt id='3088'>0.24049E+02</wgt>
<wgt id='3089'>0.24081E+02</wgt>
<wgt id='3090'>0.24137E+02</wgt>
<wgt id='3091'>0.24099E+02</wgt>
<wgt id='3092'>0.24096E+02</wgt>
<wgt id='3093'>0.24118E+02</wgt>
<wgt id='3094'>0.24155E+02</wgt>
<wgt id='3095'>0.24109E+02</wgt>
<wgt id='3096'>0.24098E+02</wgt>
<wgt id='3097'>0.24105E+02</wgt>
<wgt id='3098'>0.24079E+02</wgt>
<wgt id='3099'>0.24114E+02</wgt>
<wgt id='3100'>0.24136E+02</wgt>
<wgt id='3101'>0.23096E+02</wgt>
<wgt id='3102'>0.25138E+02</wgt>
<wgt id='5000'>0.25819E+02</wgt>
<wgt id='5001'>0.26233E+02</wgt>
<wgt id='5002'>0.26044E+02</wgt>
<wgt id='5003'>0.26054E+02</wgt>
<wgt id='5004'>0.26070E+02</wgt>
<wgt id='5005'>0.27438E+02</wgt>
<wgt id='5006'>0.26673E+02</wgt>
<wgt id='5007'>0.26257E+02</wgt>
<wgt id='5008'>0.26504E+02</wgt>
<wgt id='5009'>0.25893E+02</wgt>
<wgt id='5010'>0.25895E+02</wgt>
<wgt id='5011'>0.26652E+02</wgt>
<wgt id='5012'>0.25167E+02</wgt>
<wgt id='5013'>0.25874E+02</wgt>
<wgt id='5014'>0.25749E+02</wgt>
<wgt id='5015'>0.24845E+02</wgt>
<wgt id='5016'>0.28851E+02</wgt>
<wgt id='5017'>0.25598E+02</wgt>
<wgt id='5018'>0.26027E+02</wgt>
<wgt id='5019'>0.25186E+02</wgt>
<wgt id='5020'>0.26360E+02</wgt>
<wgt id='5021'>0.25278E+02</wgt>
<wgt id='5022'>0.26168E+02</wgt>
<wgt id='5023'>0.25517E+02</wgt>
<wgt id='5024'>0.26189E+02</wgt>
<wgt id='5025'>0.25887E+02</wgt>
<wgt id='5026'>0.25765E+02</wgt>
<wgt id='5027'>0.25096E+02</wgt>
<wgt id='5028'>0.27100E+02</wgt>
<wgt id='5029'>0.27596E+02</wgt>
<wgt id='5030'>0.24791E+02</wgt>
<wgt id='5031'>0.26703E+02</wgt>
<wgt id='5032'>0.24610E+02</wgt>
<wgt id='5033'>0.25536E+02</wgt>
<wgt id='5034'>0.26114E+02</wgt>
<wgt id='5035'>0.25654E+02</wgt>
<wgt id='5036'>0.25962E+02</wgt>
<wgt id='5037'>0.25213E+02</wgt>
<wgt id='5038'>0.26549E+02</wgt>
<wgt id='5039'>0.25877E+02</wgt>
<wgt id='5040'>0.25786E+02</wgt>
<wgt id='5041'>0.27298E+02</wgt>
<wgt id='5042'>0.25355E+02</wgt>
<wgt id='5043'>0.23894E+02</wgt>
<wgt id='5044'>0.28491E+02</wgt>
<wgt id='5045'>0.25351E+02</wgt>
<wgt id='5046'>0.26448E+02</wgt>
<wgt id='5047'>0.26057E+02</wgt>
<wgt id='5048'>0.25174E+02</wgt>
<wgt id='5049'>0.25885E+02</wgt>
<wgt id='5050'>0.25252E+02</wgt>
<wgt id='5051'>0.25495E+02</wgt>
<wgt id='5052'>0.25837E+02</wgt>
<wgt id='5053'>0.24167E+02</wgt>
<wgt id='5054'>0.24236E+02</wgt>
<wgt id='5055'>0.25825E+02</wgt>
<wgt id='5056'>0.26123E+02</wgt>
<wgt id='5060'>0.24177E+02</wgt>
<wgt id='5070'>0.27831E+02</wgt>
<wgt id='4000'>0.26256E+02</wgt>
<wgt id='4001'>0.26095E+02</wgt>
<wgt id='4002'>0.25878E+02</wgt>
<wgt id='4003'>0.26222E+02</wgt>
<wgt id='4004'>0.26932E+02</wgt>
<wgt id='4005'>0.25263E+02</wgt>
<wgt id='4006'>0.26777E+02</wgt>
<wgt id='4007'>0.26111E+02</wgt>
<wgt id='4008'>0.26325E+02</wgt>
<wgt id='4009'>0.28277E+02</wgt>
<wgt id='4010'>0.24411E+02</wgt>
<wgt id='4011'>0.26047E+02</wgt>
<wgt id='4012'>0.26316E+02</wgt>
<wgt id='4013'>0.29543E+02</wgt>
<wgt id='4014'>0.24486E+02</wgt>
<wgt id='4015'>0.27043E+02</wgt>
<wgt id='4016'>0.25752E+02</wgt>
<wgt id='4017'>0.25911E+02</wgt>
<wgt id='4018'>0.26670E+02</wgt>
<wgt id='4019'>0.24740E+02</wgt>
<wgt id='4020'>0.27983E+02</wgt>
<wgt id='4021'>0.25921E+02</wgt>
<wgt id='4022'>0.26961E+02</wgt>
<wgt id='4023'>0.27229E+02</wgt>
<wgt id='4024'>0.25336E+02</wgt>
<wgt id='4025'>0.26330E+02</wgt>
<wgt id='4026'>0.26193E+02</wgt>
<wgt id='4027'>0.26751E+02</wgt>
<wgt id='4028'>0.25575E+02</wgt>
<wgt id='4029'>0.26836E+02</wgt>
<wgt id='4030'>0.26055E+02</wgt>
<wgt id='4031'>0.26102E+02</wgt>
<wgt id='4032'>0.26461E+02</wgt>
<wgt id='4033'>0.26491E+02</wgt>
<wgt id='4034'>0.25751E+02</wgt>
<wgt id='4035'>0.25326E+02</wgt>
<wgt id='4036'>0.27074E+02</wgt>
<wgt id='4037'>0.25060E+02</wgt>
<wgt id='4038'>0.28255E+02</wgt>
<wgt id='4039'>0.25775E+02</wgt>
<wgt id='4040'>0.26856E+02</wgt>
<wgt id='4041'>0.26574E+02</wgt>
<wgt id='4042'>0.25709E+02</wgt>
<wgt id='4043'>0.26682E+02</wgt>
<wgt id='4044'>0.25562E+02</wgt>
<wgt id='4045'>0.27145E+02</wgt>
<wgt id='4046'>0.26396E+02</wgt>
<wgt id='4047'>0.26846E+02</wgt>
<wgt id='4048'>0.27248E+02</wgt>
<wgt id='4049'>0.27167E+02</wgt>
<wgt id='4050'>0.27704E+02</wgt>
<wgt id='4051'>0.26513E+02</wgt>
<wgt id='4052'>0.26553E+02</wgt>
<wgt id='4053'>0.25068E+02</wgt>
<wgt id='4054'>0.26395E+02</wgt>
<wgt id='4055'>0.26229E+02</wgt>
<wgt id='4056'>0.26434E+02</wgt>
<wgt id='4060'>0.24853E+02</wgt>
<wgt id='4070'>0.28024E+02</wgt>
<wgt id='4080'>0.37953E+02</wgt>
<wgt id='6000'>0.24426E+02</wgt>
<wgt id='6001'>0.24461E+02</wgt>
<wgt id='6002'>0.24389E+02</wgt>
<wgt id='6003'>0.24441E+02</wgt>
<wgt id='6004'>0.24416E+02</wgt>
<wgt id='6005'>0.24517E+02</wgt>
<wgt id='6006'>0.24342E+02</wgt>
<wgt id='6007'>0.24490E+02</wgt>
<wgt id='6008'>0.24355E+02</wgt>
<wgt id='6009'>0.24448E+02</wgt>
<wgt id='6010'>0.24405E+02</wgt>
<wgt id='6011'>0.24406E+02</wgt>
<wgt id='6012'>0.24469E+02</wgt>
<wgt id='6013'>0.24438E+02</wgt>
<wgt id='6014'>0.24405E+02</wgt>
<wgt id='6015'>0.24515E+02</wgt>
<wgt id='6016'>0.24378E+02</wgt>
<wgt id='6017'>0.24369E+02</wgt>
<wgt id='6018'>0.24492E+02</wgt>
<wgt id='6019'>0.24354E+02</wgt>
<wgt id='6020'>0.24490E+02</wgt>
<wgt id='6021'>0.24353E+02</wgt>
<wgt id='6022'>0.24519E+02</wgt>
<wgt id='6023'>0.24306E+02</wgt>
<wgt id='6024'>0.24494E+02</wgt>
<wgt id='6025'>0.25080E+02</wgt>
<wgt id='6026'>0.23764E+02</wgt>
<wgt id='6027'>0.24352E+02</wgt>
<wgt id='6028'>0.24429E+02</wgt>
<wgt id='6029'>0.23940E+02</wgt>
<wgt id='6030'>0.25027E+02</wgt>
<wgt id='6031'>0.23694E+02</wgt>
<wgt id='6032'>0.25314E+02</wgt>
<wgt id='6033'>0.24662E+02</wgt>
<wgt id='6034'>0.24205E+02</wgt>
<wgt id='6035'>0.24569E+02</wgt>
<wgt id='6036'>0.24074E+02</wgt>
<wgt id='6037'>0.24371E+02</wgt>
<wgt id='6038'>0.24423E+02</wgt>
<wgt id='6039'>0.24270E+02</wgt>
<wgt id='6040'>0.24605E+02</wgt>
<wgt id='6041'>0.24018E+02</wgt>
<wgt id='6042'>0.24901E+02</wgt>
<wgt id='6043'>0.24450E+02</wgt>
<wgt id='6044'>0.24536E+02</wgt>
<wgt id='6045'>0.24331E+02</wgt>
<wgt id='6046'>0.24669E+02</wgt>
<wgt id='6047'>0.23901E+02</wgt>
<wgt id='6048'>0.25515E+02</wgt>
<wgt id='6049'>0.24074E+02</wgt>
<wgt id='6050'>0.24633E+02</wgt>
<wgt id='7000'>0.25411E+02</wgt>
<wgt id='7001'>0.25437E+02</wgt>
<wgt id='7002'>0.25378E+02</wgt>
<wgt id='7003'>0.25475E+02</wgt>
<wgt id='7004'>0.25348E+02</wgt>
<wgt id='7005'>0.25452E+02</wgt>
<wgt id='7006'>0.25394E+02</wgt>
<wgt id='7007'>0.25527E+02</wgt>
<wgt id='7008'>0.25294E+02</wgt>
<wgt id='7009'>0.25442E+02</wgt>
<wgt id='7010'>0.25382E+02</wgt>
<wgt id='7011'>0.25450E+02</wgt>
<wgt id='7012'>0.25394E+02</wgt>
<wgt id='7013'>0.25386E+02</wgt>
<wgt id='7014'>0.25441E+02</wgt>
<wgt id='7015'>0.25458E+02</wgt>
<wgt id='7016'>0.25361E+02</wgt>
<wgt id='7017'>0.25123E+02</wgt>
<wgt id='7018'>0.25573E+02</wgt>
<wgt id='7019'>0.25437E+02</wgt>
<wgt id='7020'>0.25375E+02</wgt>
<wgt id='7021'>0.25453E+02</wgt>
<wgt id='7022'>0.25381E+02</wgt>
<wgt id='7023'>0.25232E+02</wgt>
<wgt id='7024'>0.25572E+02</wgt>
<wgt id='7025'>0.25362E+02</wgt>
<wgt id='7026'>0.25521E+02</wgt>
<wgt id='7027'>0.25233E+02</wgt>
<wgt id='7028'>0.25505E+02</wgt>
<wgt id='7029'>0.25955E+02</wgt>
<wgt id='7030'>0.24076E+02</wgt>
<wgt id='7031'>0.25027E+02</wgt>
<wgt id='7032'>0.26246E+02</wgt>
<wgt id='7033'>0.25609E+02</wgt>
<wgt id='7034'>0.25046E+02</wgt>
<wgt id='7035'>0.24787E+02</wgt>
<wgt id='7036'>0.25710E+02</wgt>
<wgt id='7037'>0.25371E+02</wgt>
<wgt id='7038'>0.25500E+02</wgt>
<wgt id='7039'>0.25153E+02</wgt>
<wgt id='7040'>0.25610E+02</wgt>
<wgt id='7041'>0.26098E+02</wgt>
<wgt id='7042'>0.24464E+02</wgt>
<wgt id='7043'>0.25441E+02</wgt>
<wgt id='7044'>0.25255E+02</wgt>
<wgt id='7045'>0.25971E+02</wgt>
<wgt id='7046'>0.25075E+02</wgt>
<wgt id='7047'>0.25303E+02</wgt>
<wgt id='7048'>0.25468E+02</wgt>
<wgt id='7049'>0.26057E+02</wgt>
<wgt id='7050'>0.25015E+02</wgt>
<wgt id='7060'>0.42165E+02</wgt>
<wgt id='8000'>0.21105E+02</wgt>
<wgt id='8001'>0.21104E+02</wgt>
<wgt id='8002'>0.21109E+02</wgt>
<wgt id='8003'>0.21102E+02</wgt>
<wgt id='8004'>0.21104E+02</wgt>
<wgt id='8005'>0.21078E+02</wgt>
<wgt id='8006'>0.21147E+02</wgt>
<wgt id='8007'>0.21164E+02</wgt>
<wgt id='8008'>0.21110E+02</wgt>
<wgt id='8009'>0.21130E+02</wgt>
<wgt id='8010'>0.21084E+02</wgt>
<wgt id='8011'>0.21137E+02</wgt>
<wgt id='8012'>0.21069E+02</wgt>
<wgt id='8013'>0.21056E+02</wgt>
<wgt id='8014'>0.21162E+02</wgt>
<wgt id='8015'>0.21101E+02</wgt>
<wgt id='8016'>0.21154E+02</wgt>
<wgt id='8017'>0.21162E+02</wgt>
<wgt id='8018'>0.21235E+02</wgt>
<wgt id='8019'>0.20912E+02</wgt>
<wgt id='8020'>0.21426E+02</wgt>
<wgt id='8021'>0.21018E+02</wgt>
<wgt id='8022'>0.21677E+02</wgt>
<wgt id='8023'>0.20899E+02</wgt>
<wgt id='8024'>0.20745E+02</wgt>
<wgt id='8025'>0.20730E+02</wgt>
<wgt id='8026'>0.21012E+02</wgt>
<wgt id='8027'>0.21223E+02</wgt>
<wgt id='8028'>0.21065E+02</wgt>
<wgt id='8029'>0.22684E+02</wgt>
<wgt id='8500'>0.25500E+02</wgt>
<wgt id='8501'>0.25013E+02</wgt>
<wgt id='8502'>0.25249E+02</wgt>
<wgt id='8503'>0.25499E+02</wgt>
<wgt id='8504'>0.25371E+02</wgt>
<wgt id='8505'>0.25689E+02</wgt>
<wgt id='8506'>0.25484E+02</wgt>
<wgt id='8507'>0.25325E+02</wgt>
<wgt id='8508'>0.24783E+02</wgt>
<wgt id='8509'>0.25725E+02</wgt>
<wgt id='8510'>0.24908E+02</wgt>
<wgt id='8511'>0.25240E+02</wgt>
<wgt id='8512'>0.26193E+02</wgt>
<wgt id='8513'>0.25919E+02</wgt>
<wgt id='8514'>0.25814E+02</wgt>
<wgt id='8515'>0.25594E+02</wgt>
<wgt id='8516'>0.25322E+02</wgt>
<wgt id='8517'>0.26062E+02</wgt>
<wgt id='8518'>0.25854E+02</wgt>
<wgt id='8519'>0.26033E+02</wgt>
<wgt id='8520'>0.24366E+02</wgt>
<wgt id='8521'>0.25463E+02</wgt>
<wgt id='8522'>0.26206E+02</wgt>
<wgt id='8523'>0.24985E+02</wgt>
<wgt id='8524'>0.25803E+02</wgt>
<wgt id='8525'>0.25505E+02</wgt>
<wgt id='8526'>0.25407E+02</wgt>
<wgt id='8527'>0.25557E+02</wgt>
<wgt id='8528'>0.25412E+02</wgt>
<wgt id='8529'>0.25461E+02</wgt>
<wgt id='8530'>0.25481E+02</wgt>
<wgt id='8531'>0.25486E+02</wgt>
<wgt id='8532'>0.25440E+02</wgt>
<wgt id='8533'>0.25387E+02</wgt>
<wgt id='8534'>0.25452E+02</wgt>
<wgt id='8535'>0.25612E+02</wgt>
<wgt id='8536'>0.25366E+02</wgt>
<wgt id='8537'>0.25479E+02</wgt>
<wgt id='8538'>0.25528E+02</wgt>
<wgt id='8539'>0.25486E+02</wgt>
<wgt id='8540'>0.25563E+02</wgt>
<wgt id='8541'>0.25530E+02</wgt>
<wgt id='8542'>0.25429E+02</wgt>
<wgt id='8543'>0.25409E+02</wgt>
<wgt id='8544'>0.25560E+02</wgt>
<wgt id='8545'>0.25505E+02</wgt>
<wgt id='8546'>0.25601E+02</wgt>
<wgt id='8547'>0.25456E+02</wgt>
<wgt id='8548'>0.25436E+02</wgt>
<wgt id='8549'>0.25528E+02</wgt>
<wgt id='8550'>0.25481E+02</wgt>
<wgt id='8551'>0.25567E+02</wgt>
<wgt id='8552'>0.25448E+02</wgt>
<wgt id='8553'>0.25407E+02</wgt>
<wgt id='8554'>0.25504E+02</wgt>
<wgt id='8555'>0.25494E+02</wgt>
<wgt id='8556'>0.25465E+02</wgt>
<wgt id='8557'>0.25524E+02</wgt>
<wgt id='8558'>0.25504E+02</wgt>
<wgt id='8559'>0.25494E+02</wgt>
<wgt id='8560'>0.25486E+02</wgt>
<wgt id='8561'>0.25541E+02</wgt>
<wgt id='8562'>0.25507E+02</wgt>
<wgt id='8563'>0.25503E+02</wgt>
<wgt id='8564'>0.25493E+02</wgt>
<wgt id='8565'>0.25549E+02</wgt>
<wgt id='8566'>0.25566E+02</wgt>
<wgt id='8567'>0.25536E+02</wgt>
<wgt id='8568'>0.25530E+02</wgt>
<wgt id='8569'>0.25526E+02</wgt>
<wgt id='8570'>0.25487E+02</wgt>
<wgt id='8571'>0.25440E+02</wgt>
<wgt id='8572'>0.25468E+02</wgt>
<wgt id='8573'>0.25448E+02</wgt>
<wgt id='8574'>0.25498E+02</wgt>
<wgt id='8575'>0.25466E+02</wgt>
<wgt id='8576'>0.25512E+02</wgt>
<wgt id='8577'>0.25455E+02</wgt>
<wgt id='8578'>0.25520E+02</wgt>
<wgt id='8579'>0.25551E+02</wgt>
<wgt id='8580'>0.25453E+02</wgt>
<wgt id='8581'>0.25531E+02</wgt>
<wgt id='8582'>0.25473E+02</wgt>
<wgt id='8583'>0.25518E+02</wgt>
<wgt id='8584'>0.25551E+02</wgt>
<wgt id='8585'>0.25524E+02</wgt>
<wgt id='8586'>0.25572E+02</wgt>
<wgt id='8587'>0.25512E+02</wgt>
<wgt id='8588'>0.25501E+02</wgt>
<wgt id='8589'>0.25501E+02</wgt>
<wgt id='8590'>0.25493E+02</wgt>
<wgt id='8591'>0.25468E+02</wgt>
<wgt id='8592'>0.25486E+02</wgt>
<wgt id='8593'>0.25478E+02</wgt>
<wgt id='8594'>0.25498E+02</wgt>
<wgt id='8595'>0.25491E+02</wgt>
<wgt id='8596'>0.25484E+02</wgt>
<wgt id='8597'>0.25523E+02</wgt>
<wgt id='8598'>0.25518E+02</wgt>
<wgt id='8599'>0.25506E+02</wgt>
<wgt id='8600'>0.25499E+02</wgt>
<wgt id='8601'>0.24531E+02</wgt>
<wgt id='8602'>0.26704E+02</wgt>
<wgt id='9000'>0.24961E+02</wgt>
<wgt id='9001'>0.25252E+02</wgt>
<wgt id='9002'>0.24716E+02</wgt>
<wgt id='9003'>0.25446E+02</wgt>
<wgt id='9004'>0.25245E+02</wgt>
<wgt id='9005'>0.25139E+02</wgt>
<wgt id='9006'>0.25085E+02</wgt>
<wgt id='9007'>0.24785E+02</wgt>
<wgt id='9008'>0.24705E+02</wgt>
<wgt id='9009'>0.25127E+02</wgt>
<wgt id='9010'>0.25190E+02</wgt>
<wgt id='9011'>0.24445E+02</wgt>
<wgt id='9012'>0.25482E+02</wgt>
<wgt id='9013'>0.25846E+02</wgt>
<wgt id='9014'>0.25352E+02</wgt>
<wgt id='9015'>0.24705E+02</wgt>
<wgt id='9016'>0.24449E+02</wgt>
<wgt id='9017'>0.25109E+02</wgt>
<wgt id='9018'>0.25223E+02</wgt>
<wgt id='9019'>0.25268E+02</wgt>
<wgt id='9020'>0.24067E+02</wgt>
<wgt id='9021'>0.24126E+02</wgt>
<wgt id='9022'>0.25231E+02</wgt>
<wgt id='9023'>0.23992E+02</wgt>
<wgt id='9024'>0.24678E+02</wgt>
<wgt id='9025'>0.25090E+02</wgt>
<wgt id='9026'>0.24700E+02</wgt>
<wgt id='9027'>0.25077E+02</wgt>
<wgt id='9028'>0.25127E+02</wgt>
<wgt id='9029'>0.25000E+02</wgt>
<wgt id='9030'>0.24967E+02</wgt>
<wgt id='9031'>0.24874E+02</wgt>
<wgt id='9032'>0.25019E+02</wgt>
<wgt id='9033'>0.25036E+02</wgt>
<wgt id='9034'>0.25031E+02</wgt>
<wgt id='9035'>0.24994E+02</wgt>
<wgt id='9036'>0.25002E+02</wgt>
<wgt id='9037'>0.24986E+02</wgt>
<wgt id='9038'>0.25048E+02</wgt>
<wgt id='9039'>0.24997E+02</wgt>
<wgt id='9040'>0.24916E+02</wgt>
<wgt id='9041'>0.24990E+02</wgt>
<wgt id='9042'>0.25082E+02</wgt>
<wgt id='9043'>0.24868E+02</wgt>
<wgt id='9044'>0.25020E+02</wgt>
<wgt id='9045'>0.24994E+02</wgt>
<wgt id='9046'>0.24912E+02</wgt>
<wgt id='9047'>0.25000E+02</wgt>
<wgt id='9048'>0.24985E+02</wgt>
<wgt id='9049'>0.24932E+02</wgt>
<wgt id='9050'>0.24945E+02</wgt>
<wgt id='9051'>0.25020E+02</wgt>
<wgt id='9052'>0.25046E+02</wgt>
<wgt id='9053'>0.25001E+02</wgt>
<wgt id='9054'>0.24936E+02</wgt>
<wgt id='9055'>0.24933E+02</wgt>
<wgt id='9056'>0.24947E+02</wgt>
<wgt id='9057'>0.24949E+02</wgt>
<wgt id='9058'>0.24920E+02</wgt>
<wgt id='9059'>0.24949E+02</wgt>
<wgt id='9060'>0.24979E+02</wgt>
<wgt id='9061'>0.24927E+02</wgt>
<wgt id='9062'>0.24981E+02</wgt>
<wgt id='9063'>0.24957E+02</wgt>
<wgt id='9064'>0.25009E+02</wgt>
<wgt id='9065'>0.24924E+02</wgt>
<wgt id='9066'>0.24922E+02</wgt>
<wgt id='9067'>0.24924E+02</wgt>
<wgt id='9068'>0.24958E+02</wgt>
<wgt id='9069'>0.25015E+02</wgt>
<wgt id='9070'>0.24954E+02</wgt>
<wgt id='9071'>0.24964E+02</wgt>
<wgt id='9072'>0.24982E+02</wgt>
<wgt id='9073'>0.24963E+02</wgt>
<wgt id='9074'>0.24987E+02</wgt>
<wgt id='9075'>0.24955E+02</wgt>
<wgt id='9076'>0.24970E+02</wgt>
<wgt id='9077'>0.24981E+02</wgt>
<wgt id='9078'>0.24996E+02</wgt>
<wgt id='9079'>0.24927E+02</wgt>
<wgt id='9080'>0.25003E+02</wgt>
<wgt id='9081'>0.24962E+02</wgt>
<wgt id='9082'>0.24958E+02</wgt>
<wgt id='9083'>0.24959E+02</wgt>
<wgt id='9084'>0.24920E+02</wgt>
<wgt id='9085'>0.24916E+02</wgt>
<wgt id='9086'>0.24973E+02</wgt>
<wgt id='9087'>0.24892E+02</wgt>
<wgt id='9088'>0.24933E+02</wgt>
<wgt id='9089'>0.24940E+02</wgt>
<wgt id='9090'>0.24972E+02</wgt>
<wgt id='9091'>0.24950E+02</wgt>
<wgt id='9092'>0.24943E+02</wgt>
<wgt id='9093'>0.24942E+02</wgt>
<wgt id='9094'>0.24946E+02</wgt>
<wgt id='9095'>0.24959E+02</wgt>
<wgt id='9096'>0.24945E+02</wgt>
<wgt id='9097'>0.24970E+02</wgt>
<wgt id='9098'>0.24958E+02</wgt>
<wgt id='9099'>0.24945E+02</wgt>
<wgt id='9100'>0.24962E+02</wgt>
<wgt id='9101'>0.23781E+02</wgt>
<wgt id='9102'>0.26393E+02</wgt>
<wgt id='10000'>0.25499E+02</wgt>
<wgt id='10001'>0.25070E+02</wgt>
<wgt id='10002'>0.24905E+02</wgt>
<wgt id='10003'>0.25338E+02</wgt>
<wgt id='10004'>0.25217E+02</wgt>
<wgt id='10005'>0.24418E+02</wgt>
<wgt id='10006'>0.24779E+02</wgt>
<wgt id='10007'>0.25502E+02</wgt>
<wgt id='10008'>0.25164E+02</wgt>
<wgt id='10009'>0.25287E+02</wgt>
<wgt id='10010'>0.25378E+02</wgt>
<wgt id='10011'>0.25146E+02</wgt>
<wgt id='10012'>0.25251E+02</wgt>
<wgt id='10013'>0.25605E+02</wgt>
<wgt id='10014'>0.25519E+02</wgt>
<wgt id='10015'>0.25573E+02</wgt>
<wgt id='10016'>0.25548E+02</wgt>
<wgt id='10017'>0.25751E+02</wgt>
<wgt id='10018'>0.25668E+02</wgt>
<wgt id='10019'>0.24867E+02</wgt>
<wgt id='10020'>0.25587E+02</wgt>
<wgt id='10021'>0.25382E+02</wgt>
<wgt id='10022'>0.26724E+02</wgt>
<wgt id='10023'>0.25499E+02</wgt>
<wgt id='10024'>0.25442E+02</wgt>
<wgt id='10025'>0.25489E+02</wgt>
<wgt id='10026'>0.25407E+02</wgt>
<wgt id='10027'>0.25439E+02</wgt>
<wgt id='10028'>0.25257E+02</wgt>
<wgt id='10029'>0.25536E+02</wgt>
<wgt id='10030'>0.25507E+02</wgt>
<wgt id='10031'>0.24531E+02</wgt>
<wgt id='10032'>0.26704E+02</wgt>
<wgt id='11000'>0.24960E+02</wgt>
<wgt id='11001'>0.25045E+02</wgt>
<wgt id='11002'>0.24675E+02</wgt>
<wgt id='11003'>0.25093E+02</wgt>
<wgt id='11004'>0.24456E+02</wgt>
<wgt id='11005'>0.26974E+02</wgt>
<wgt id='11006'>0.24969E+02</wgt>
<wgt id='11007'>0.25068E+02</wgt>
<wgt id='11008'>0.25107E+02</wgt>
<wgt id='11009'>0.25066E+02</wgt>
<wgt id='11010'>0.24778E+02</wgt>
<wgt id='11011'>0.24966E+02</wgt>
<wgt id='11012'>0.24821E+02</wgt>
<wgt id='11013'>0.24879E+02</wgt>
<wgt id='11014'>0.24862E+02</wgt>
<wgt id='11015'>0.24703E+02</wgt>
<wgt id='11016'>0.25119E+02</wgt>
<wgt id='11017'>0.24920E+02</wgt>
<wgt id='11018'>0.24959E+02</wgt>
<wgt id='11019'>0.25111E+02</wgt>
<wgt id='11020'>0.25021E+02</wgt>
<wgt id='11021'>0.25011E+02</wgt>
<wgt id='11022'>0.24630E+02</wgt>
<wgt id='11023'>0.25023E+02</wgt>
<wgt id='11024'>0.24854E+02</wgt>
<wgt id='11025'>0.24874E+02</wgt>
<wgt id='11026'>0.24968E+02</wgt>
<wgt id='11027'>0.25159E+02</wgt>
<wgt id='11028'>0.24890E+02</wgt>
<wgt id='11029'>0.24235E+02</wgt>
<wgt id='11030'>0.24933E+02</wgt>
<wgt id='11031'>0.23781E+02</wgt>
<wgt id='11032'>0.26393E+02</wgt>
<wgt id='12000'>0.16404E+02</wgt>
<wgt id='12001'>0.16397E+02</wgt>
<wgt id='12002'>0.16412E+02</wgt>
<wgt id='12003'>0.16392E+02</wgt>
<wgt id='12004'>0.16417E+02</wgt>
<wgt id='12005'>0.16352E+02</wgt>
<wgt id='12006'>0.16457E+02</wgt>
<wgt id='12007'>0.16441E+02</wgt>
<wgt id='12008'>0.16368E+02</wgt>
<wgt id='12009'>0.16341E+02</wgt>
<wgt id='12010'>0.16471E+02</wgt>
<wgt id='12011'>0.16397E+02</wgt>
<wgt id='12012'>0.16413E+02</wgt>
<wgt id='12013'>0.16515E+02</wgt>
<wgt id='12014'>0.16295E+02</wgt>
<wgt id='12015'>0.16445E+02</wgt>
<wgt id='12016'>0.16385E+02</wgt>
<wgt id='12017'>0.16359E+02</wgt>
<wgt id='12018'>0.16460E+02</wgt>
<wgt id='12019'>0.16742E+02</wgt>
<wgt id='12020'>0.16092E+02</wgt>
<wgt id='12021'>0.16430E+02</wgt>
<wgt id='12022'>0.16403E+02</wgt>
<wgt id='12023'>0.16326E+02</wgt>
<wgt id='12024'>0.16623E+02</wgt>
<wgt id='12025'>0.16150E+02</wgt>
<wgt id='12026'>0.16622E+02</wgt>
<wgt id='12027'>0.16616E+02</wgt>
<wgt id='12028'>0.16251E+02</wgt>
<wgt id='12050'>0.16404E+02</wgt>
<wgt id='12051'>0.16565E+02</wgt>
<wgt id='12052'>0.16222E+02</wgt>
<wgt id='12053'>0.16584E+02</wgt>
<wgt id='12054'>0.16280E+02</wgt>
<wgt id='12055'>0.15983E+02</wgt>
<wgt id='12056'>0.17256E+02</wgt>
<wgt id='12057'>0.16468E+02</wgt>
<wgt id='12058'>0.16364E+02</wgt>
<wgt id='12059'>0.16568E+02</wgt>
<wgt id='12060'>0.16255E+02</wgt>
<wgt id='12061'>0.16437E+02</wgt>
<wgt id='12062'>0.16287E+02</wgt>
<wgt id='12063'>0.17014E+02</wgt>
<wgt id='13000'>0.20564E+02</wgt>
<wgt id='13001'>0.20548E+02</wgt>
<wgt id='13002'>0.20581E+02</wgt>
<wgt id='13003'>0.20562E+02</wgt>
<wgt id='13004'>0.20568E+02</wgt>
<wgt id='13005'>0.20512E+02</wgt>
<wgt id='13006'>0.20617E+02</wgt>
<wgt id='13007'>0.20608E+02</wgt>
<wgt id='13008'>0.20522E+02</wgt>
<wgt id='13009'>0.20486E+02</wgt>
<wgt id='13010'>0.20645E+02</wgt>
<wgt id='13011'>0.20564E+02</wgt>
<wgt id='13012'>0.20569E+02</wgt>
<wgt id='13013'>0.20672E+02</wgt>
<wgt id='13014'>0.20458E+02</wgt>
<wgt id='13015'>0.20690E+02</wgt>
<wgt id='13016'>0.20439E+02</wgt>
<wgt id='13017'>0.20487E+02</wgt>
<wgt id='13018'>0.20654E+02</wgt>
<wgt id='13019'>0.20945E+02</wgt>
<wgt id='13020'>0.20202E+02</wgt>
<wgt id='13021'>0.21350E+02</wgt>
<wgt id='13022'>0.19887E+02</wgt>
<wgt id='13023'>0.19993E+02</wgt>
<wgt id='13024'>0.21141E+02</wgt>
<wgt id='13025'>0.20018E+02</wgt>
<wgt id='13026'>0.21135E+02</wgt>
<wgt id='13027'>0.20264E+02</wgt>
<wgt id='13028'>0.20885E+02</wgt>
<wgt id='13050'>0.20564E+02</wgt>
<wgt id='13051'>0.20696E+02</wgt>
<wgt id='13052'>0.20364E+02</wgt>
<wgt id='13053'>0.20760E+02</wgt>
<wgt id='13054'>0.20503E+02</wgt>
<wgt id='13055'>0.18987E+02</wgt>
<wgt id='13056'>0.21875E+02</wgt>
<wgt id='13057'>0.20657E+02</wgt>
<wgt id='13058'>0.20454E+02</wgt>
<wgt id='13059'>0.20983E+02</wgt>
<wgt id='13060'>0.18847E+02</wgt>
<wgt id='13061'>0.20904E+02</wgt>
<wgt id='13062'>0.20064E+02</wgt>
<wgt id='13063'>0.21688E+02</wgt>
<wgt id='14000'>0.26036E+02</wgt>
<wgt id='14001'>0.26035E+02</wgt>
<wgt id='14002'>0.26033E+02</wgt>
<wgt id='14003'>0.26031E+02</wgt>
<wgt id='14004'>0.26029E+02</wgt>
<wgt id='14005'>0.26028E+02</wgt>
<wgt id='14006'>0.26026E+02</wgt>
<wgt id='14007'>0.26024E+02</wgt>
<wgt id='14008'>0.26022E+02</wgt>
<wgt id='14009'>0.26021E+02</wgt>
<wgt id='14010'>0.26019E+02</wgt>
<wgt id='14011'>0.26017E+02</wgt>
<wgt id='14012'>0.26015E+02</wgt>
<wgt id='14013'>0.26014E+02</wgt>
<wgt id='14014'>0.26012E+02</wgt>
<wgt id='14015'>0.26010E+02</wgt>
<wgt id='14016'>0.26008E+02</wgt>
<wgt id='14017'>0.26007E+02</wgt>
<wgt id='14018'>0.26005E+02</wgt>
<wgt id='14019'>0.26003E+02</wgt>
<wgt id='14020'>0.26001E+02</wgt>
<wgt id='14021'>0.26000E+02</wgt>
<wgt id='14022'>0.25998E+02</wgt>
<wgt id='14023'>0.25996E+02</wgt>
<wgt id='14024'>0.25994E+02</wgt>
<wgt id='14025'>0.25993E+02</wgt>
<wgt id='14026'>0.25991E+02</wgt>
<wgt id='14027'>0.25989E+02</wgt>
<wgt id='14028'>0.25987E+02</wgt>
<wgt id='14029'>0.25986E+02</wgt>
<wgt id='14030'>0.25984E+02</wgt>
<wgt id='15000'>0.24670E+02</wgt>
<wgt id='15001'>0.24957E+02</wgt>
<wgt id='15002'>0.24427E+02</wgt>
<wgt id='15003'>0.25150E+02</wgt>
<wgt id='15004'>0.24951E+02</wgt>
<wgt id='15005'>0.24847E+02</wgt>
<wgt id='15006'>0.24794E+02</wgt>
<wgt id='15007'>0.24496E+02</wgt>
<wgt id='15008'>0.24417E+02</wgt>
<wgt id='15009'>0.24835E+02</wgt>
<wgt id='15010'>0.24897E+02</wgt>
<wgt id='15011'>0.24161E+02</wgt>
<wgt id='15012'>0.25185E+02</wgt>
<wgt id='15013'>0.25545E+02</wgt>
<wgt id='15014'>0.25055E+02</wgt>
<wgt id='15015'>0.24414E+02</wgt>
<wgt id='15016'>0.24165E+02</wgt>
<wgt id='15017'>0.24816E+02</wgt>
<wgt id='15018'>0.24929E+02</wgt>
<wgt id='15019'>0.24974E+02</wgt>
<wgt id='15020'>0.23789E+02</wgt>
<wgt id='15021'>0.23844E+02</wgt>
<wgt id='15022'>0.24937E+02</wgt>
<wgt id='15023'>0.23713E+02</wgt>
<wgt id='15024'>0.24390E+02</wgt>
<wgt id='15025'>0.24796E+02</wgt>
<wgt id='15026'>0.24412E+02</wgt>
<wgt id='15027'>0.24785E+02</wgt>
<wgt id='15028'>0.24834E+02</wgt>
<wgt id='15029'>0.24708E+02</wgt>
<wgt id='15030'>0.24676E+02</wgt>
<wgt id='15031'>0.24585E+02</wgt>
<wgt id='15032'>0.24728E+02</wgt>
<wgt id='15033'>0.24745E+02</wgt>
<wgt id='15034'>0.24738E+02</wgt>
<wgt id='15035'>0.24703E+02</wgt>
<wgt id='15036'>0.24710E+02</wgt>
<wgt id='15037'>0.24695E+02</wgt>
<wgt id='15038'>0.24756E+02</wgt>
<wgt id='15039'>0.24705E+02</wgt>
<wgt id='15040'>0.24626E+02</wgt>
<wgt id='15041'>0.24697E+02</wgt>
<wgt id='15042'>0.24789E+02</wgt>
<wgt id='15043'>0.24579E+02</wgt>
<wgt id='15044'>0.24728E+02</wgt>
<wgt id='15045'>0.24702E+02</wgt>
<wgt id='15046'>0.24622E+02</wgt>
<wgt id='15047'>0.24708E+02</wgt>
<wgt id='15048'>0.24694E+02</wgt>
<wgt id='15049'>0.24641E+02</wgt>
<wgt id='15050'>0.24654E+02</wgt>
<wgt id='15051'>0.24729E+02</wgt>
<wgt id='15052'>0.24755E+02</wgt>
<wgt id='15053'>0.24710E+02</wgt>
<wgt id='15054'>0.24646E+02</wgt>
<wgt id='15055'>0.24642E+02</wgt>
<wgt id='15056'>0.24656E+02</wgt>
<wgt id='15057'>0.24657E+02</wgt>
<wgt id='15058'>0.24630E+02</wgt>
<wgt id='15059'>0.24658E+02</wgt>
<wgt id='15060'>0.24688E+02</wgt>
<wgt id='15061'>0.24637E+02</wgt>
<wgt id='15062'>0.24689E+02</wgt>
<wgt id='15063'>0.24666E+02</wgt>
<wgt id='15064'>0.24717E+02</wgt>
<wgt id='15065'>0.24634E+02</wgt>
<wgt id='15066'>0.24632E+02</wgt>
<wgt id='15067'>0.24633E+02</wgt>
<wgt id='15068'>0.24667E+02</wgt>
<wgt id='15069'>0.24724E+02</wgt>
<wgt id='15070'>0.24663E+02</wgt>
<wgt id='15071'>0.24673E+02</wgt>
<wgt id='15072'>0.24691E+02</wgt>
<wgt id='15073'>0.24671E+02</wgt>
<wgt id='15074'>0.24696E+02</wgt>
<wgt id='15075'>0.24664E+02</wgt>
<wgt id='15076'>0.24679E+02</wgt>
<wgt id='15077'>0.24690E+02</wgt>
<wgt id='15078'>0.24706E+02</wgt>
<wgt id='15079'>0.24636E+02</wgt>
<wgt id='15080'>0.24711E+02</wgt>
<wgt id='15081'>0.24671E+02</wgt>
<wgt id='15082'>0.24667E+02</wgt>
<wgt id='15083'>0.24668E+02</wgt>
<wgt id='15084'>0.24629E+02</wgt>
<wgt id='15085'>0.24625E+02</wgt>
<wgt id='15086'>0.24682E+02</wgt>
<wgt id='15087'>0.24602E+02</wgt>
<wgt id='15088'>0.24642E+02</wgt>
<wgt id='15089'>0.24649E+02</wgt>
<wgt id='15090'>0.24681E+02</wgt>
<wgt id='15091'>0.24659E+02</wgt>
<wgt id='15092'>0.24652E+02</wgt>
<wgt id='15093'>0.24652E+02</wgt>
<wgt id='15094'>0.24655E+02</wgt>
<wgt id='15095'>0.24668E+02</wgt>
<wgt id='15096'>0.24654E+02</wgt>
<wgt id='15097'>0.24679E+02</wgt>
<wgt id='15098'>0.24667E+02</wgt>
<wgt id='15099'>0.24654E+02</wgt>
<wgt id='15100'>0.24671E+02</wgt>
<wgt id='15101'>0.24670E+02</wgt>
<wgt id='15102'>0.24669E+02</wgt>
<wgt id='15103'>0.24670E+02</wgt>
<wgt id='15104'>0.24670E+02</wgt>
<wgt id='15105'>0.24671E+02</wgt>
<wgt id='15106'>0.24670E+02</wgt>
<wgt id='15107'>0.24669E+02</wgt>
<wgt id='1500'>0.25918E+02</wgt>
<wgt id='1501'>0.25404E+02</wgt>
<wgt id='1502'>0.26671E+02</wgt>
<wgt id='1503'>0.24417E+02</wgt>
<wgt id='1504'>0.26039E+02</wgt>
<wgt id='1505'>0.25140E+02</wgt>
<wgt id='1506'>0.27219E+02</wgt>
<wgt id='1507'>0.25052E+02</wgt>
<wgt id='1508'>0.26491E+02</wgt>
<wgt id='1509'>0.25905E+02</wgt>
<wgt id='1510'>0.23823E+02</wgt>
<wgt id='1511'>0.27996E+02</wgt>
<wgt id='1512'>0.25356E+02</wgt>
<wgt id='1513'>0.27545E+02</wgt>
<wgt id='1514'>0.28178E+02</wgt>
<wgt id='1515'>0.26953E+02</wgt>
<wgt id='1516'>0.24928E+02</wgt>
<wgt id='1517'>0.30961E+02</wgt>
<wgt id='1518'>0.26936E+02</wgt>
<wgt id='1519'>0.25323E+02</wgt>
<wgt id='1520'>0.24456E+02</wgt>
<wgt id='1521'>0.25700E+02</wgt>
<wgt id='1522'>0.22611E+02</wgt>
<wgt id='1523'>0.22730E+02</wgt>
<wgt id='1524'>0.22428E+02</wgt>
<wgt id='1525'>0.25788E+02</wgt>
<wgt id='1526'>0.25941E+02</wgt>
<wgt id='1527'>0.30526E+02</wgt>
<wgt id='1528'>0.28876E+02</wgt>
<wgt id='1529'>0.27577E+02</wgt>
<wgt id='1530'>0.24562E+02</wgt>
<wgt id='1531'>0.24858E+02</wgt>
<wgt id='1532'>0.26653E+02</wgt>
<wgt id='1533'>0.25352E+02</wgt>
<wgt id='1534'>0.24504E+02</wgt>
<wgt id='1535'>0.27309E+02</wgt>
<wgt id='1536'>0.24769E+02</wgt>
<wgt id='1537'>0.28028E+02</wgt>
<wgt id='1538'>0.24449E+02</wgt>
<wgt id='1539'>0.25301E+02</wgt>
<wgt id='1540'>0.24993E+02</wgt>
<wgt id='1541'>0.24178E+02</wgt>
<wgt id='1542'>0.26607E+02</wgt>
<wgt id='1543'>0.23337E+02</wgt>
<wgt id='1544'>0.24408E+02</wgt>
<wgt id='1545'>0.22488E+02</wgt>
<wgt id='1546'>0.22340E+02</wgt>
<wgt id='1547'>0.27467E+02</wgt>
<wgt id='1548'>0.27222E+02</wgt>
<wgt id='1549'>0.26499E+02</wgt>
<wgt id='1550'>0.25725E+02</wgt>
<wgt id='1551'>0.25354E+02</wgt>
<wgt id='1552'>0.24047E+02</wgt>
<wgt id='1553'>0.25616E+02</wgt>
<wgt id='1554'>0.28336E+02</wgt>
<wgt id='1555'>0.25632E+02</wgt>
<wgt id='1556'>0.28412E+02</wgt>
<wgt id='1557'>0.25230E+02</wgt>
<wgt id='1558'>0.26349E+02</wgt>
<wgt id='1559'>0.25960E+02</wgt>
<wgt id='1560'>0.24800E+02</wgt>
<wgt id='1561'>0.26485E+02</wgt>
<wgt id='1562'>0.24015E+02</wgt>
<wgt id='1563'>0.28537E+02</wgt>
<wgt id='1564'>0.28101E+02</wgt>
<wgt id='1565'>0.26495E+02</wgt>
<wgt id='1566'>0.25867E+02</wgt>
<wgt id='1567'>0.23879E+02</wgt>
<wgt id='1568'>0.26950E+02</wgt>
<wgt id='1569'>0.28010E+02</wgt>
<wgt id='1570'>0.27904E+02</wgt>
<wgt id='1571'>0.22363E+02</wgt>
<wgt id='1572'>0.25725E+02</wgt>
<wgt id='1573'>0.27246E+02</wgt>
<wgt id='1574'>0.27966E+02</wgt>
<wgt id='1575'>0.25650E+02</wgt>
<wgt id='1576'>0.23777E+02</wgt>
<wgt id='1577'>0.24448E+02</wgt>
<wgt id='1578'>0.27911E+02</wgt>
<wgt id='1579'>0.25457E+02</wgt>
<wgt id='1580'>0.25798E+02</wgt>
<wgt id='1581'>0.24185E+02</wgt>
<wgt id='1582'>0.25360E+02</wgt>
<wgt id='1583'>0.28096E+02</wgt>
<wgt id='1584'>0.25500E+02</wgt>
<wgt id='1585'>0.26725E+02</wgt>
<wgt id='1586'>0.27249E+02</wgt>
<wgt id='1587'>0.26291E+02</wgt>
<wgt id='1588'>0.27329E+02</wgt>
<wgt id='1589'>0.26351E+02</wgt>
<wgt id='1590'>0.25797E+02</wgt>
<wgt id='1591'>0.26340E+02</wgt>
<wgt id='1592'>0.23962E+02</wgt>
<wgt id='1593'>0.27171E+02</wgt>
<wgt id='1594'>0.25343E+02</wgt>
<wgt id='1595'>0.30023E+02</wgt>
<wgt id='1596'>0.26306E+02</wgt>
<wgt id='1597'>0.25131E+02</wgt>
<wgt id='1598'>0.21827E+02</wgt>
<wgt id='1599'>0.27165E+02</wgt>
<wgt id='1600'>0.27198E+02</wgt>
<wgt id='1601'>0.25009E+02</wgt>
<wgt id='1602'>0.26757E+02</wgt>
<wgt id='1700'>0.23735E+02</wgt>
<wgt id='1800'>0.22032E+02</wgt>
<wgt id='1850'>0.27979E+02</wgt>
<wgt id='1900'>0.25925E+02</wgt>
<wgt id='1950'>0.28563E+02</wgt>
</rwgt>
</event>
<event>
      4   9999  2.16956E+01  1.34269E+01 -1.00000E+00  1.78558E-01
      21    -1     0     0   502   512  0.000000000E+00  0.000000000E+00  3.780431333E+02  3.780431333E+02  0.000000000E+00  0.00000E+00  9.000E+00
      21    -1     0     0   501   502  0.000000000E+00  0.000000000E+00 -1.623336693E+01  1.623336693E+01  0.000000000E+00  0.00000E+00  9.000E+00
      25     1     1     2     0     0 -5.778434094E+00  1.211992701E+01  2.328561469E+02  2.646257428E+02  1.249980627E+02  0.00000E+00  9.000E+00
      21     1     1     2   501   512  5.778434094E+00 -1.211992701E+01  1.289536195E+02  1.296507575E+02  2.697398305E-06  0.00000E+00  9.000E+00
#rwgt            1           1   16.512280864386025                1        6309           0
<rwgt>
<wgt id='1001'>0.21696E+02</wgt>
<wgt id='1002'>0.22057E+02</wgt>
<wgt id='1003'>0.21133E+02</wgt>
<wgt id='1004'>0.19714E+02</wgt>
<wgt id='1005'>0.20113E+02</wgt>
<wgt id='1006'>0.19103E+02</wgt>
<wgt id='1007'>0.23592E+02</wgt>
<wgt id='1008'>0.23856E+02</wgt>
<wgt id='1009'>0.23160E+02</wgt>
<wgt id='2000'>0.21696E+02</wgt>
<wgt id='2001'>0.21658E+02</wgt>
<wgt id='2002'>0.21748E+02</wgt>
<wgt id='2003'>0.21730E+02</wgt>
<wgt id='2004'>0.21705E+02</wgt>
<wgt id='2005'>0.21680E+02</wgt>
<wgt id='2006'>0.21672E+02</wgt>
<wgt id='2007'>0.21666E+02</wgt>
<wgt id='2008'>0.21716E+02</wgt>
<wgt id='2009'>0.21679E+02</wgt>
<wgt id='2010'>0.21669E+02</wgt>
<wgt id='2011'>0.21754E+02</wgt>
<wgt id='2012'>0.21753E+02</wgt>
<wgt id='2013'>0.21748E+02</wgt>
<wgt id='2014'>0.21742E+02</wgt>
<wgt id='2015'>0.21734E+02</wgt>
<wgt id='2016'>0.21711E+02</wgt>
<wgt id='2017'>0.21695E+02</wgt>
<wgt id='2018'>0.21731E+02</wgt>
<wgt id='2019'>0.21694E+02</wgt>
<wgt id='2020'>0.21776E+02</wgt>
<wgt id='2021'>0.21659E+02</wgt>
<wgt id='2022'>0.21780E+02</wgt>
<wgt id='2023'>0.21742E+02</wgt>
<wgt id='2024'>0.21692E+02</wgt>
<wgt id='2025'>0.21802E+02</wgt>
<wgt id='2026'>0.21768E+02</wgt>
<wgt id='2027'>0.21670E+02</wgt>
<wgt id='2028'>0.21647E+02</wgt>
<wgt id='2029'>0.21710E+02</wgt>
<wgt id='2030'>0.21699E+02</wgt>
<wgt id='2031'>0.21720E+02</wgt>
<wgt id='2032'>0.21675E+02</wgt>
<wgt id='2033'>0.21696E+02</wgt>
<wgt id='2034'>0.21715E+02</wgt>
<wgt id='2035'>0.21693E+02</wgt>
<wgt id='2036'>0.21711E+02</wgt>
<wgt id='2037'>0.21704E+02</wgt>
<wgt id='2038'>0.21700E+02</wgt>
<wgt id='2039'>0.21691E+02</wgt>
<wgt id='2040'>0.21711E+02</wgt>
<wgt id='2041'>0.21705E+02</wgt>
<wgt id='2042'>0.21678E+02</wgt>
<wgt id='2043'>0.21707E+02</wgt>
<wgt id='2044'>0.21708E+02</wgt>
<wgt id='2045'>0.21695E+02</wgt>
<wgt id='2046'>0.21698E+02</wgt>
<wgt id='2047'>0.21709E+02</wgt>
<wgt id='2048'>0.21695E+02</wgt>
<wgt id='2049'>0.21697E+02</wgt>
<wgt id='2050'>0.21696E+02</wgt>
<wgt id='2051'>0.21711E+02</wgt>
<wgt id='2052'>0.21693E+02</wgt>
<wgt id='2053'>0.21692E+02</wgt>
<wgt id='2054'>0.21690E+02</wgt>
<wgt id='2055'>0.21698E+02</wgt>
<wgt id='2056'>0.21696E+02</wgt>
<wgt id='2057'>0.21698E+02</wgt>
<wgt id='2058'>0.21704E+02</wgt>
<wgt id='2059'>0.21696E+02</wgt>
<wgt id='2060'>0.21700E+02</wgt>
<wgt id='2061'>0.21688E+02</wgt>
<wgt id='2062'>0.21690E+02</wgt>
<wgt id='2063'>0.21699E+02</wgt>
<wgt id='2064'>0.21687E+02</wgt>
<wgt id='2065'>0.21697E+02</wgt>
<wgt id='2066'>0.21689E+02</wgt>
<wgt id='2067'>0.21695E+02</wgt>
<wgt id='2068'>0.21699E+02</wgt>
<wgt id='2069'>0.21699E+02</wgt>
<wgt id='2070'>0.21697E+02</wgt>
<wgt id='2071'>0.21691E+02</wgt>
<wgt id='2072'>0.21698E+02</wgt>
<wgt id='2073'>0.21696E+02</wgt>
<wgt id='2074'>0.21698E+02</wgt>
<wgt id='2075'>0.21692E+02</wgt>
<wgt id='2076'>0.21698E+02</wgt>
<wgt id='2077'>0.21692E+02</wgt>
<wgt id='2078'>0.21695E+02</wgt>
<wgt id='2079'>0.21697E+02</wgt>
<wgt id='2080'>0.21696E+02</wgt>
<wgt id='2081'>0.21698E+02</wgt>
<wgt id='2082'>0.21698E+02</wgt>
<wgt id='2083'>0.21694E+02</wgt>
<wgt id='2084'>0.21696E+02</wgt>
<wgt id='2085'>0.21695E+02</wgt>
<wgt id='2086'>0.21693E+02</wgt>
<wgt id='2087'>0.21693E+02</wgt>
<wgt id='2088'>0.21697E+02</wgt>
<wgt id='2089'>0.21695E+02</wgt>
<wgt id='2090'>0.21695E+02</wgt>
<wgt id='2091'>0.21695E+02</wgt>
<wgt id='2092'>0.21694E+02</wgt>
<wgt id='2093'>0.21695E+02</wgt>
<wgt id='2094'>0.21695E+02</wgt>
<wgt id='2095'>0.21697E+02</wgt>
<wgt id='2096'>0.21696E+02</wgt>
<wgt id='2097'>0.21697E+02</wgt>
<wgt id='2098'>0.21696E+02</wgt>
<wgt id='2099'>0.21695E+02</wgt>
<wgt id='2100'>0.21696E+02</wgt>
<wgt id='2101'>0.21212E+02</wgt>
<wgt id='2102'>0.22130E+02</wgt>
<wgt id='2104'>0.19476E+02</wgt>
<wgt id='2105'>0.19874E+02</wgt>
<wgt id='2106'>0.20342E+02</wgt>
<wgt id='2107'>0.20811E+02</wgt>
<wgt id='2108'>0.21483E+02</wgt>
<wgt id='2109'>0.21949E+02</wgt>
<wgt id='2110'>0.22511E+02</wgt>
<wgt id='2111'>0.22949E+02</wgt>
<wgt id='3000'>0.22630E+02</wgt>
<wgt id='3001'>0.22678E+02</wgt>
<wgt id='3002'>0.22576E+02</wgt>
<wgt id='3003'>0.22671E+02</wgt>
<wgt id='3004'>0.22656E+02</wgt>
<wgt id='3005'>0.22674E+02</wgt>
<wgt id='3006'>0.22641E+02</wgt>
<wgt id='3007'>0.22625E+02</wgt>
<wgt id='3008'>0.22600E+02</wgt>
<wgt id='3009'>0.22557E+02</wgt>
<wgt id='3010'>0.22587E+02</wgt>
<wgt id='3011'>0.22665E+02</wgt>
<wgt id='3012'>0.22711E+02</wgt>
<wgt id='3013'>0.22565E+02</wgt>
<wgt id='3014'>0.22659E+02</wgt>
<wgt id='3015'>0.22636E+02</wgt>
<wgt id='3016'>0.22643E+02</wgt>
<wgt id='3017'>0.22662E+02</wgt>
<wgt id='3018'>0.22678E+02</wgt>
<wgt id='3019'>0.22585E+02</wgt>
<wgt id='3020'>0.22561E+02</wgt>
<wgt id='3021'>0.22547E+02</wgt>
<wgt id='3022'>0.22626E+02</wgt>
<wgt id='3023'>0.22571E+02</wgt>
<wgt id='3024'>0.22546E+02</wgt>
<wgt id='3025'>0.22628E+02</wgt>
<wgt id='3026'>0.22695E+02</wgt>
<wgt id='3027'>0.22633E+02</wgt>
<wgt id='3028'>0.22535E+02</wgt>
<wgt id='3029'>0.22606E+02</wgt>
<wgt id='3030'>0.22649E+02</wgt>
<wgt id='3031'>0.22640E+02</wgt>
<wgt id='3032'>0.22667E+02</wgt>
<wgt id='3033'>0.22664E+02</wgt>
<wgt id='3034'>0.22652E+02</wgt>
<wgt id='3035'>0.22645E+02</wgt>
<wgt id='3036'>0.22632E+02</wgt>
<wgt id='3037'>0.22634E+02</wgt>
<wgt id='3038'>0.22632E+02</wgt>
<wgt id='3039'>0.22605E+02</wgt>
<wgt id='3040'>0.22641E+02</wgt>
<wgt id='3041'>0.22644E+02</wgt>
<wgt id='3042'>0.22612E+02</wgt>
<wgt id='3043'>0.22617E+02</wgt>
<wgt id='3044'>0.22627E+02</wgt>
<wgt id='3045'>0.22642E+02</wgt>
<wgt id='3046'>0.22637E+02</wgt>
<wgt id='3047'>0.22627E+02</wgt>
<wgt id='3048'>0.22645E+02</wgt>
<wgt id='3049'>0.22630E+02</wgt>
<wgt id='3050'>0.22636E+02</wgt>
<wgt id='3051'>0.22645E+02</wgt>
<wgt id='3052'>0.22624E+02</wgt>
<wgt id='3053'>0.22622E+02</wgt>
<wgt id='3054'>0.22625E+02</wgt>
<wgt id='3055'>0.22622E+02</wgt>
<wgt id='3056'>0.22631E+02</wgt>
<wgt id='3057'>0.22617E+02</wgt>
<wgt id='3058'>0.22625E+02</wgt>
<wgt id='3059'>0.22626E+02</wgt>
<wgt id='3060'>0.22631E+02</wgt>
<wgt id='3061'>0.22626E+02</wgt>
<wgt id='3062'>0.22630E+02</wgt>
<wgt id='3063'>0.22639E+02</wgt>
<wgt id='3064'>0.22628E+02</wgt>
<wgt id='3065'>0.22633E+02</wgt>
<wgt id='3066'>0.22631E+02</wgt>
<wgt id='3067'>0.22628E+02</wgt>
<wgt id='3068'>0.22629E+02</wgt>
<wgt id='3069'>0.22626E+02</wgt>
<wgt id='3070'>0.22631E+02</wgt>
<wgt id='3071'>0.22632E+02</wgt>
<wgt id='3072'>0.22632E+02</wgt>
<wgt id='3073'>0.22626E+02</wgt>
<wgt id='3074'>0.22636E+02</wgt>
<wgt id='3075'>0.22630E+02</wgt>
<wgt id='3076'>0.22629E+02</wgt>
<wgt id='3077'>0.22631E+02</wgt>
<wgt id='3078'>0.22632E+02</wgt>
<wgt id='3079'>0.22628E+02</wgt>
<wgt id='3080'>0.22627E+02</wgt>
<wgt id='3081'>0.22628E+02</wgt>
<wgt id='3082'>0.22627E+02</wgt>
<wgt id='3083'>0.22632E+02</wgt>
<wgt id='3084'>0.22630E+02</wgt>
<wgt id='3085'>0.22632E+02</wgt>
<wgt id='3086'>0.22631E+02</wgt>
<wgt id='3087'>0.22629E+02</wgt>
<wgt id='3088'>0.22629E+02</wgt>
<wgt id='3089'>0.22630E+02</wgt>
<wgt id='3090'>0.22631E+02</wgt>
<wgt id='3091'>0.22630E+02</wgt>
<wgt id='3092'>0.22630E+02</wgt>
<wgt id='3093'>0.22631E+02</wgt>
<wgt id='3094'>0.22632E+02</wgt>
<wgt id='3095'>0.22630E+02</wgt>
<wgt id='3096'>0.22628E+02</wgt>
<wgt id='3097'>0.22627E+02</wgt>
<wgt id='3098'>0.22629E+02</wgt>
<wgt id='3099'>0.22631E+02</wgt>
<wgt id='3100'>0.22631E+02</wgt>
<wgt id='3101'>0.22120E+02</wgt>
<wgt id='3102'>0.23194E+02</wgt>
<wgt id='5000'>0.20924E+02</wgt>
<wgt id='5001'>0.20878E+02</wgt>
<wgt id='5002'>0.20878E+02</wgt>
<wgt id='5003'>0.20851E+02</wgt>
<wgt id='5004'>0.20903E+02</wgt>
<wgt id='5005'>0.20626E+02</wgt>
<wgt id='5006'>0.20959E+02</wgt>
<wgt id='5007'>0.20900E+02</wgt>
<wgt id='5008'>0.20809E+02</wgt>
<wgt id='5009'>0.21073E+02</wgt>
<wgt id='5010'>0.20835E+02</wgt>
<wgt id='5011'>0.20909E+02</wgt>
<wgt id='5012'>0.20899E+02</wgt>
<wgt id='5013'>0.20581E+02</wgt>
<wgt id='5014'>0.21020E+02</wgt>
<wgt id='5015'>0.21053E+02</wgt>
<wgt id='5016'>0.20521E+02</wgt>
<wgt id='5017'>0.20901E+02</wgt>
<wgt id='5018'>0.20949E+02</wgt>
<wgt id='5019'>0.20890E+02</wgt>
<wgt id='5020'>0.20960E+02</wgt>
<wgt id='5021'>0.20977E+02</wgt>
<wgt id='5022'>0.20889E+02</wgt>
<wgt id='5023'>0.20846E+02</wgt>
<wgt id='5024'>0.21004E+02</wgt>
<wgt id='5025'>0.20913E+02</wgt>
<wgt id='5026'>0.20933E+02</wgt>
<wgt id='5027'>0.21122E+02</wgt>
<wgt id='5028'>0.20589E+02</wgt>
<wgt id='5029'>0.20559E+02</wgt>
<wgt id='5030'>0.21143E+02</wgt>
<wgt id='5031'>0.20709E+02</wgt>
<wgt id='5032'>0.21234E+02</wgt>
<wgt id='5033'>0.20803E+02</wgt>
<wgt id='5034'>0.21025E+02</wgt>
<wgt id='5035'>0.20678E+02</wgt>
<wgt id='5036'>0.21126E+02</wgt>
<wgt id='5037'>0.20797E+02</wgt>
<wgt id='5038'>0.21057E+02</wgt>
<wgt id='5039'>0.21291E+02</wgt>
<wgt id='5040'>0.20737E+02</wgt>
<wgt id='5041'>0.20785E+02</wgt>
<wgt id='5042'>0.20928E+02</wgt>
<wgt id='5043'>0.21050E+02</wgt>
<wgt id='5044'>0.20483E+02</wgt>
<wgt id='5045'>0.21393E+02</wgt>
<wgt id='5046'>0.20766E+02</wgt>
<wgt id='5047'>0.21022E+02</wgt>
<wgt id='5048'>0.21039E+02</wgt>
<wgt id='5049'>0.20934E+02</wgt>
<wgt id='5050'>0.20959E+02</wgt>
<wgt id='5051'>0.20961E+02</wgt>
<wgt id='5052'>0.20918E+02</wgt>
<wgt id='5053'>0.20621E+02</wgt>
<wgt id='5054'>0.21000E+02</wgt>
<wgt id='5055'>0.20785E+02</wgt>
<wgt id='5056'>0.21118E+02</wgt>
<wgt id='5060'>0.20419E+02</wgt>
<wgt id='5070'>0.21389E+02</wgt>
<wgt id='4000'>0.21936E+02</wgt>
<wgt id='4001'>0.21950E+02</wgt>
<wgt id='4002'>0.21986E+02</wgt>
<wgt id='4003'>0.22122E+02</wgt>
<wgt id='4004'>0.21826E+02</wgt>
<wgt id='4005'>0.21992E+02</wgt>
<wgt id='4006'>0.21891E+02</wgt>
<wgt id='4007'>0.22088E+02</wgt>
<wgt id='4008'>0.21884E+02</wgt>
<wgt id='4009'>0.21592E+02</wgt>
<wgt id='4010'>0.22102E+02</wgt>
<wgt id='4011'>0.22242E+02</wgt>
<wgt id='4012'>0.21754E+02</wgt>
<wgt id='4013'>0.21245E+02</wgt>
<wgt id='4014'>0.22325E+02</wgt>
<wgt id='4015'>0.22187E+02</wgt>
<wgt id='4016'>0.21773E+02</wgt>
<wgt id='4017'>0.21678E+02</wgt>
<wgt id='4018'>0.22241E+02</wgt>
<wgt id='4019'>0.22188E+02</wgt>
<wgt id='4020'>0.21653E+02</wgt>
<wgt id='4021'>0.21977E+02</wgt>
<wgt id='4022'>0.21841E+02</wgt>
<wgt id='4023'>0.21850E+02</wgt>
<wgt id='4024'>0.22008E+02</wgt>
<wgt id='4025'>0.21762E+02</wgt>
<wgt id='4026'>0.22091E+02</wgt>
<wgt id='4027'>0.21878E+02</wgt>
<wgt id='4028'>0.22012E+02</wgt>
<wgt id='4029'>0.21793E+02</wgt>
<wgt id='4030'>0.21985E+02</wgt>
<wgt id='4031'>0.21975E+02</wgt>
<wgt id='4032'>0.21884E+02</wgt>
<wgt id='4033'>0.21898E+02</wgt>
<wgt id='4034'>0.22017E+02</wgt>
<wgt id='4035'>0.22165E+02</wgt>
<wgt id='4036'>0.21716E+02</wgt>
<wgt id='4037'>0.22071E+02</wgt>
<wgt id='4038'>0.21702E+02</wgt>
<wgt id='4039'>0.21912E+02</wgt>
<wgt id='4040'>0.21924E+02</wgt>
<wgt id='4041'>0.22068E+02</wgt>
<wgt id='4042'>0.21818E+02</wgt>
<wgt id='4043'>0.22068E+02</wgt>
<wgt id='4044'>0.21842E+02</wgt>
<wgt id='4045'>0.21622E+02</wgt>
<wgt id='4046'>0.21914E+02</wgt>
<wgt id='4047'>0.21789E+02</wgt>
<wgt id='4048'>0.21901E+02</wgt>
<wgt id='4049'>0.21802E+02</wgt>
<wgt id='4050'>0.21731E+02</wgt>
<wgt id='4051'>0.21891E+02</wgt>
<wgt id='4052'>0.21907E+02</wgt>
<wgt id='4053'>0.21325E+02</wgt>
<wgt id='4054'>0.22003E+02</wgt>
<wgt id='4055'>0.21791E+02</wgt>
<wgt id='4056'>0.22131E+02</wgt>
<wgt id='4060'>0.21349E+02</wgt>
<wgt id='4070'>0.22493E+02</wgt>
<wgt id='4080'>0.22204E+02</wgt>
<wgt id='6000'>0.22303E+02</wgt>
<wgt id='6001'>0.22323E+02</wgt>
<wgt id='6002'>0.22282E+02</wgt>
<wgt id='6003'>0.22314E+02</wgt>
<wgt id='6004'>0.22296E+02</wgt>
<wgt id='6005'>0.22349E+02</wgt>
<wgt id='6006'>0.22259E+02</wgt>
<wgt id='6007'>0.22217E+02</wgt>
<wgt id='6008'>0.22398E+02</wgt>
<wgt id='6009'>0.22387E+02</wgt>
<wgt id='6010'>0.22220E+02</wgt>
<wgt id='6011'>0.22353E+02</wgt>
<wgt id='6012'>0.22195E+02</wgt>
<wgt id='6013'>0.22277E+02</wgt>
<wgt id='6014'>0.22349E+02</wgt>
<wgt id='6015'>0.22237E+02</wgt>
<wgt id='6016'>0.22340E+02</wgt>
<wgt id='6017'>0.22170E+02</wgt>
<wgt id='6018'>0.22461E+02</wgt>
<wgt id='6019'>0.22323E+02</wgt>
<wgt id='6020'>0.22285E+02</wgt>
<wgt id='6021'>0.22254E+02</wgt>
<wgt id='6022'>0.22369E+02</wgt>
<wgt id='6023'>0.22142E+02</wgt>
<wgt id='6024'>0.22416E+02</wgt>
<wgt id='6025'>0.22177E+02</wgt>
<wgt id='6026'>0.22367E+02</wgt>
<wgt id='6027'>0.22365E+02</wgt>
<wgt id='6028'>0.22302E+02</wgt>
<wgt id='6029'>0.22395E+02</wgt>
<wgt id='6030'>0.22195E+02</wgt>
<wgt id='6031'>0.22293E+02</wgt>
<wgt id='6032'>0.22303E+02</wgt>
<wgt id='6033'>0.22352E+02</wgt>
<wgt id='6034'>0.22251E+02</wgt>
<wgt id='6035'>0.22301E+02</wgt>
<wgt id='6036'>0.22347E+02</wgt>
<wgt id='6037'>0.22343E+02</wgt>
<wgt id='6038'>0.22301E+02</wgt>
<wgt id='6039'>0.22272E+02</wgt>
<wgt id='6040'>0.22336E+02</wgt>
<wgt id='6041'>0.22253E+02</wgt>
<wgt id='6042'>0.22363E+02</wgt>
<wgt id='6043'>0.22603E+02</wgt>
<wgt id='6044'>0.22175E+02</wgt>
<wgt id='6045'>0.22285E+02</wgt>
<wgt id='6046'>0.22350E+02</wgt>
<wgt id='6047'>0.22392E+02</wgt>
<wgt id='6048'>0.22063E+02</wgt>
<wgt id='6049'>0.22348E+02</wgt>
<wgt id='6050'>0.22271E+02</wgt>
<wgt id='7000'>0.21032E+02</wgt>
<wgt id='7001'>0.21037E+02</wgt>
<wgt id='7002'>0.21025E+02</wgt>
<wgt id='7003'>0.21094E+02</wgt>
<wgt id='7004'>0.20969E+02</wgt>
<wgt id='7005'>0.21070E+02</wgt>
<wgt id='7006'>0.21016E+02</wgt>
<wgt id='7007'>0.20949E+02</wgt>
<wgt id='7008'>0.21113E+02</wgt>
<wgt id='7009'>0.21072E+02</wgt>
<wgt id='7010'>0.20991E+02</wgt>
<wgt id='7011'>0.20820E+02</wgt>
<wgt id='7012'>0.21122E+02</wgt>
<wgt id='7013'>0.21030E+02</wgt>
<wgt id='7014'>0.21032E+02</wgt>
<wgt id='7015'>0.20968E+02</wgt>
<wgt id='7016'>0.21098E+02</wgt>
<wgt id='7017'>0.20931E+02</wgt>
<wgt id='7018'>0.21084E+02</wgt>
<wgt id='7019'>0.21007E+02</wgt>
<wgt id='7020'>0.21065E+02</wgt>
<wgt id='7021'>0.21026E+02</wgt>
<wgt id='7022'>0.21034E+02</wgt>
<wgt id='7023'>0.21205E+02</wgt>
<wgt id='7024'>0.20854E+02</wgt>
<wgt id='7025'>0.21106E+02</wgt>
<wgt id='7026'>0.20848E+02</wgt>
<wgt id='7027'>0.21114E+02</wgt>
<wgt id='7028'>0.21002E+02</wgt>
<wgt id='7029'>0.20969E+02</wgt>
<wgt id='7030'>0.21180E+02</wgt>
<wgt id='7031'>0.21017E+02</wgt>
<wgt id='7032'>0.21066E+02</wgt>
<wgt id='7033'>0.21016E+02</wgt>
<wgt id='7034'>0.21075E+02</wgt>
<wgt id='7035'>0.21053E+02</wgt>
<wgt id='7036'>0.21032E+02</wgt>
<wgt id='7037'>0.21038E+02</wgt>
<wgt id='7038'>0.21041E+02</wgt>
<wgt id='7039'>0.20997E+02</wgt>
<wgt id='7040'>0.21056E+02</wgt>
<wgt id='7041'>0.20995E+02</wgt>
<wgt id='7042'>0.21065E+02</wgt>
<wgt id='7043'>0.21049E+02</wgt>
<wgt id='7044'>0.20932E+02</wgt>
<wgt id='7045'>0.20840E+02</wgt>
<wgt id='7046'>0.21130E+02</wgt>
<wgt id='7047'>0.21080E+02</wgt>
<wgt id='7048'>0.21006E+02</wgt>
<wgt id='7049'>0.20984E+02</wgt>
<wgt id='7050'>0.21041E+02</wgt>
<wgt id='7060'>0.32172E+02</wgt>
<wgt id='8000'>0.21264E+02</wgt>
<wgt id='8001'>0.21259E+02</wgt>
<wgt id='8002'>0.21270E+02</wgt>
<wgt id='8003'>0.21266E+02</wgt>
<wgt id='8004'>0.21263E+02</wgt>
<wgt id='8005'>0.21211E+02</wgt>
<wgt id='8006'>0.21255E+02</wgt>
<wgt id='8007'>0.21243E+02</wgt>
<wgt id='8008'>0.21304E+02</wgt>
<wgt id='8009'>0.21347E+02</wgt>
<wgt id='8010'>0.21262E+02</wgt>
<wgt id='8011'>0.21255E+02</wgt>
<wgt id='8012'>0.21233E+02</wgt>
<wgt id='8013'>0.21256E+02</wgt>
<wgt id='8014'>0.21261E+02</wgt>
<wgt id='8015'>0.21247E+02</wgt>
<wgt id='8016'>0.21274E+02</wgt>
<wgt id='8017'>0.21272E+02</wgt>
<wgt id='8018'>0.21271E+02</wgt>
<wgt id='8019'>0.21295E+02</wgt>
<wgt id='8020'>0.21207E+02</wgt>
<wgt id='8021'>0.21263E+02</wgt>
<wgt id='8022'>0.21160E+02</wgt>
<wgt id='8023'>0.21277E+02</wgt>
<wgt id='8024'>0.21288E+02</wgt>
<wgt id='8025'>0.21321E+02</wgt>
<wgt id='8026'>0.21305E+02</wgt>
<wgt id='8027'>0.21235E+02</wgt>
<wgt id='8028'>0.21286E+02</wgt>
<wgt id='8029'>0.21115E+02</wgt>
<wgt id='8500'>0.22146E+02</wgt>
<wgt id='8501'>0.22065E+02</wgt>
<wgt id='8502'>0.22270E+02</wgt>
<wgt id='8503'>0.22250E+02</wgt>
<wgt id='8504'>0.22100E+02</wgt>
<wgt id='8505'>0.22112E+02</wgt>
<wgt id='8506'>0.22128E+02</wgt>
<wgt id='8507'>0.22215E+02</wgt>
<wgt id='8508'>0.22257E+02</wgt>
<wgt id='8509'>0.22120E+02</wgt>
<wgt id='8510'>0.22445E+02</wgt>
<wgt id='8511'>0.22159E+02</wgt>
<wgt id='8512'>0.21964E+02</wgt>
<wgt id='8513'>0.22166E+02</wgt>
<wgt id='8514'>0.21931E+02</wgt>
<wgt id='8515'>0.22210E+02</wgt>
<wgt id='8516'>0.22175E+02</wgt>
<wgt id='8517'>0.22038E+02</wgt>
<wgt id='8518'>0.22084E+02</wgt>
<wgt id='8519'>0.22095E+02</wgt>
<wgt id='8520'>0.22143E+02</wgt>
<wgt id='8521'>0.22034E+02</wgt>
<wgt id='8522'>0.22167E+02</wgt>
<wgt id='8523'>0.22087E+02</wgt>
<wgt id='8524'>0.22127E+02</wgt>
<wgt id='8525'>0.22120E+02</wgt>
<wgt id='8526'>0.22111E+02</wgt>
<wgt id='8527'>0.22146E+02</wgt>
<wgt id='8528'>0.22087E+02</wgt>
<wgt id='8529'>0.22119E+02</wgt>
<wgt id='8530'>0.22151E+02</wgt>
<wgt id='8531'>0.22137E+02</wgt>
<wgt id='8532'>0.22148E+02</wgt>
<wgt id='8533'>0.22095E+02</wgt>
<wgt id='8534'>0.22150E+02</wgt>
<wgt id='8535'>0.22202E+02</wgt>
<wgt id='8536'>0.22132E+02</wgt>
<wgt id='8537'>0.22154E+02</wgt>
<wgt id='8538'>0.22128E+02</wgt>
<wgt id='8539'>0.22150E+02</wgt>
<wgt id='8540'>0.22149E+02</wgt>
<wgt id='8541'>0.22156E+02</wgt>
<wgt id='8542'>0.22161E+02</wgt>
<wgt id='8543'>0.22124E+02</wgt>
<wgt id='8544'>0.22165E+02</wgt>
<wgt id='8545'>0.22163E+02</wgt>
<wgt id='8546'>0.22171E+02</wgt>
<wgt id='8547'>0.22128E+02</wgt>
<wgt id='8548'>0.22126E+02</wgt>
<wgt id='8549'>0.22146E+02</wgt>
<wgt id='8550'>0.22150E+02</wgt>
<wgt id='8551'>0.22127E+02</wgt>
<wgt id='8552'>0.22148E+02</wgt>
<wgt id='8553'>0.22135E+02</wgt>
<wgt id='8554'>0.22138E+02</wgt>
<wgt id='8555'>0.22148E+02</wgt>
<wgt id='8556'>0.22143E+02</wgt>
<wgt id='8557'>0.22142E+02</wgt>
<wgt id='8558'>0.22170E+02</wgt>
<wgt id='8559'>0.22134E+02</wgt>
<wgt id='8560'>0.22122E+02</wgt>
<wgt id='8561'>0.22143E+02</wgt>
<wgt id='8562'>0.22129E+02</wgt>
<wgt id='8563'>0.22148E+02</wgt>
<wgt id='8564'>0.22141E+02</wgt>
<wgt id='8565'>0.22146E+02</wgt>
<wgt id='8566'>0.22141E+02</wgt>
<wgt id='8567'>0.22144E+02</wgt>
<wgt id='8568'>0.22155E+02</wgt>
<wgt id='8569'>0.22152E+02</wgt>
<wgt id='8570'>0.22145E+02</wgt>
<wgt id='8571'>0.22136E+02</wgt>
<wgt id='8572'>0.22138E+02</wgt>
<wgt id='8573'>0.22137E+02</wgt>
<wgt id='8574'>0.22152E+02</wgt>
<wgt id='8575'>0.22143E+02</wgt>
<wgt id='8576'>0.22143E+02</wgt>
<wgt id='8577'>0.22145E+02</wgt>
<wgt id='8578'>0.22148E+02</wgt>
<wgt id='8579'>0.22159E+02</wgt>
<wgt id='8580'>0.22146E+02</wgt>
<wgt id='8581'>0.22151E+02</wgt>
<wgt id='8582'>0.22131E+02</wgt>
<wgt id='8583'>0.22155E+02</wgt>
<wgt id='8584'>0.22151E+02</wgt>
<wgt id='8585'>0.22151E+02</wgt>
<wgt id='8586'>0.22156E+02</wgt>
<wgt id='8587'>0.22143E+02</wgt>
<wgt id='8588'>0.22140E+02</wgt>
<wgt id='8589'>0.22146E+02</wgt>
<wgt id='8590'>0.22144E+02</wgt>
<wgt id='8591'>0.22143E+02</wgt>
<wgt id='8592'>0.22145E+02</wgt>
<wgt id='8593'>0.22137E+02</wgt>
<wgt id='8594'>0.22149E+02</wgt>
<wgt id='8595'>0.22149E+02</wgt>
<wgt id='8596'>0.22141E+02</wgt>
<wgt id='8597'>0.22149E+02</wgt>
<wgt id='8598'>0.22151E+02</wgt>
<wgt id='8599'>0.22149E+02</wgt>
<wgt id='8600'>0.22146E+02</wgt>
<wgt id='8601'>0.21760E+02</wgt>
<wgt id='8602'>0.22488E+02</wgt>
<wgt id='9000'>0.21075E+02</wgt>
<wgt id='9001'>0.21084E+02</wgt>
<wgt id='9002'>0.21152E+02</wgt>
<wgt id='9003'>0.20946E+02</wgt>
<wgt id='9004'>0.21054E+02</wgt>
<wgt id='9005'>0.21120E+02</wgt>
<wgt id='9006'>0.21063E+02</wgt>
<wgt id='9007'>0.21130E+02</wgt>
<wgt id='9008'>0.21120E+02</wgt>
<wgt id='9009'>0.21056E+02</wgt>
<wgt id='9010'>0.21005E+02</wgt>
<wgt id='9011'>0.21277E+02</wgt>
<wgt id='9012'>0.20936E+02</wgt>
<wgt id='9013'>0.20827E+02</wgt>
<wgt id='9014'>0.20951E+02</wgt>
<wgt id='9015'>0.21081E+02</wgt>
<wgt id='9016'>0.21269E+02</wgt>
<wgt id='9017'>0.21013E+02</wgt>
<wgt id='9018'>0.21022E+02</wgt>
<wgt id='9019'>0.21041E+02</wgt>
<wgt id='9020'>0.21177E+02</wgt>
<wgt id='9021'>0.21058E+02</wgt>
<wgt id='9022'>0.21114E+02</wgt>
<wgt id='9023'>0.21011E+02</wgt>
<wgt id='9024'>0.21045E+02</wgt>
<wgt id='9025'>0.21087E+02</wgt>
<wgt id='9026'>0.21074E+02</wgt>
<wgt id='9027'>0.21046E+02</wgt>
<wgt id='9028'>0.21093E+02</wgt>
<wgt id='9029'>0.21104E+02</wgt>
<wgt id='9030'>0.21094E+02</wgt>
<wgt id='9031'>0.21059E+02</wgt>
<wgt id='9032'>0.21091E+02</wgt>
<wgt id='9033'>0.21101E+02</wgt>
<wgt id='9034'>0.21071E+02</wgt>
<wgt id='9035'>0.21111E+02</wgt>
<wgt id='9036'>0.21077E+02</wgt>
<wgt id='9037'>0.21093E+02</wgt>
<wgt id='9038'>0.21079E+02</wgt>
<wgt id='9039'>0.21076E+02</wgt>
<wgt id='9040'>0.21053E+02</wgt>
<wgt id='9041'>0.21066E+02</wgt>
<wgt id='9042'>0.21069E+02</wgt>
<wgt id='9043'>0.21054E+02</wgt>
<wgt id='9044'>0.21081E+02</wgt>
<wgt id='9045'>0.21070E+02</wgt>
<wgt id='9046'>0.21046E+02</wgt>
<wgt id='9047'>0.21069E+02</wgt>
<wgt id='9048'>0.21081E+02</wgt>
<wgt id='9049'>0.21064E+02</wgt>
<wgt id='9050'>0.21078E+02</wgt>
<wgt id='9051'>0.21084E+02</wgt>
<wgt id='9052'>0.21082E+02</wgt>
<wgt id='9053'>0.21078E+02</wgt>
<wgt id='9054'>0.21066E+02</wgt>
<wgt id='9055'>0.21069E+02</wgt>
<wgt id='9056'>0.21094E+02</wgt>
<wgt id='9057'>0.21074E+02</wgt>
<wgt id='9058'>0.21057E+02</wgt>
<wgt id='9059'>0.21065E+02</wgt>
<wgt id='9060'>0.21068E+02</wgt>
<wgt id='9061'>0.21077E+02</wgt>
<wgt id='9062'>0.21079E+02</wgt>
<wgt id='9063'>0.21084E+02</wgt>
<wgt id='9064'>0.21069E+02</wgt>
<wgt id='9065'>0.21074E+02</wgt>
<wgt id='9066'>0.21076E+02</wgt>
<wgt id='9067'>0.21081E+02</wgt>
<wgt id='9068'>0.21080E+02</wgt>
<wgt id='9069'>0.21088E+02</wgt>
<wgt id='9070'>0.21072E+02</wgt>
<wgt id='9071'>0.21087E+02</wgt>
<wgt id='9072'>0.21088E+02</wgt>
<wgt id='9073'>0.21069E+02</wgt>
<wgt id='9074'>0.21078E+02</wgt>
<wgt id='9075'>0.21074E+02</wgt>
<wgt id='9076'>0.21072E+02</wgt>
<wgt id='9077'>0.21078E+02</wgt>
<wgt id='9078'>0.21077E+02</wgt>
<wgt id='9079'>0.21071E+02</wgt>
<wgt id='9080'>0.21089E+02</wgt>
<wgt id='9081'>0.21073E+02</wgt>
<wgt id='9082'>0.21080E+02</wgt>
<wgt id='9083'>0.21068E+02</wgt>
<wgt id='9084'>0.21069E+02</wgt>
<wgt id='9085'>0.21068E+02</wgt>
<wgt id='9086'>0.21077E+02</wgt>
<wgt id='9087'>0.21062E+02</wgt>
<wgt id='9088'>0.21070E+02</wgt>
<wgt id='9089'>0.21070E+02</wgt>
<wgt id='9090'>0.21078E+02</wgt>
<wgt id='9091'>0.21073E+02</wgt>
<wgt id='9092'>0.21074E+02</wgt>
<wgt id='9093'>0.21071E+02</wgt>
<wgt id='9094'>0.21074E+02</wgt>
<wgt id='9095'>0.21077E+02</wgt>
<wgt id='9096'>0.21070E+02</wgt>
<wgt id='9097'>0.21076E+02</wgt>
<wgt id='9098'>0.21075E+02</wgt>
<wgt id='9099'>0.21069E+02</wgt>
<wgt id='9100'>0.21074E+02</wgt>
<wgt id='9101'>0.20787E+02</wgt>
<wgt id='9102'>0.21344E+02</wgt>
<wgt id='10000'>0.22146E+02</wgt>
<wgt id='10001'>0.22236E+02</wgt>
<wgt id='10002'>0.22051E+02</wgt>
<wgt id='10003'>0.22141E+02</wgt>
<wgt id='10004'>0.22060E+02</wgt>
<wgt id='10005'>0.22583E+02</wgt>
<wgt id='10006'>0.22106E+02</wgt>
<wgt id='10007'>0.22132E+02</wgt>
<wgt id='10008'>0.22206E+02</wgt>
<wgt id='10009'>0.22095E+02</wgt>
<wgt id='10010'>0.22183E+02</wgt>
<wgt id='10011'>0.22113E+02</wgt>
<wgt id='10012'>0.22120E+02</wgt>
<wgt id='10013'>0.22149E+02</wgt>
<wgt id='10014'>0.22132E+02</wgt>
<wgt id='10015'>0.22166E+02</wgt>
<wgt id='10016'>0.22115E+02</wgt>
<wgt id='10017'>0.22028E+02</wgt>
<wgt id='10018'>0.22173E+02</wgt>
<wgt id='10019'>0.22135E+02</wgt>
<wgt id='10020'>0.22123E+02</wgt>
<wgt id='10021'>0.22137E+02</wgt>
<wgt id='10022'>0.22131E+02</wgt>
<wgt id='10023'>0.22152E+02</wgt>
<wgt id='10024'>0.22126E+02</wgt>
<wgt id='10025'>0.22124E+02</wgt>
<wgt id='10026'>0.22193E+02</wgt>
<wgt id='10027'>0.22185E+02</wgt>
<wgt id='10028'>0.22298E+02</wgt>
<wgt id='10029'>0.22177E+02</wgt>
<wgt id='10030'>0.22140E+02</wgt>
<wgt id='10031'>0.21760E+02</wgt>
<wgt id='10032'>0.22488E+02</wgt>
<wgt id='11000'>0.21075E+02</wgt>
<wgt id='11001'>0.20953E+02</wgt>
<wgt id='11002'>0.21145E+02</wgt>
<wgt id='11003'>0.21049E+02</wgt>
<wgt id='11004'>0.21153E+02</wgt>
<wgt id='11005'>0.20858E+02</wgt>
<wgt id='11006'>0.21082E+02</wgt>
<wgt id='11007'>0.21023E+02</wgt>
<wgt id='11008'>0.21019E+02</wgt>
<wgt id='11009'>0.20994E+02</wgt>
<wgt id='11010'>0.21189E+02</wgt>
<wgt id='11011'>0.20998E+02</wgt>
<wgt id='11012'>0.21090E+02</wgt>
<wgt id='11013'>0.21136E+02</wgt>
<wgt id='11014'>0.21031E+02</wgt>
<wgt id='11015'>0.21058E+02</wgt>
<wgt id='11016'>0.21056E+02</wgt>
<wgt id='11017'>0.21210E+02</wgt>
<wgt id='11018'>0.21065E+02</wgt>
<wgt id='11019'>0.21062E+02</wgt>
<wgt id='11020'>0.21126E+02</wgt>
<wgt id='11021'>0.21119E+02</wgt>
<wgt id='11022'>0.21394E+02</wgt>
<wgt id='11023'>0.21079E+02</wgt>
<wgt id='11024'>0.21094E+02</wgt>
<wgt id='11025'>0.21053E+02</wgt>
<wgt id='11026'>0.21080E+02</wgt>
<wgt id='11027'>0.21071E+02</wgt>
<wgt id='11028'>0.21095E+02</wgt>
<wgt id='11029'>0.21108E+02</wgt>
<wgt id='11030'>0.21073E+02</wgt>
<wgt id='11031'>0.20787E+02</wgt>
<wgt id='11032'>0.21344E+02</wgt>
<wgt id='12000'>0.23266E+02</wgt>
<wgt id='12001'>0.23234E+02</wgt>
<wgt id='12002'>0.23297E+02</wgt>
<wgt id='12003'>0.23325E+02</wgt>
<wgt id='12004'>0.23207E+02</wgt>
<wgt id='12005'>0.23300E+02</wgt>
<wgt id='12006'>0.23231E+02</wgt>
<wgt id='12007'>0.23329E+02</wgt>
<wgt id='12008'>0.23203E+02</wgt>
<wgt id='12009'>0.23292E+02</wgt>
<wgt id='12010'>0.23240E+02</wgt>
<wgt id='12011'>0.23190E+02</wgt>
<wgt id='12012'>0.23343E+02</wgt>
<wgt id='12013'>0.23182E+02</wgt>
<wgt id='12014'>0.23350E+02</wgt>
<wgt id='12015'>0.23274E+02</wgt>
<wgt id='12016'>0.23245E+02</wgt>
<wgt id='12017'>0.23347E+02</wgt>
<wgt id='12018'>0.23178E+02</wgt>
<wgt id='12019'>0.23212E+02</wgt>
<wgt id='12020'>0.23317E+02</wgt>
<wgt id='12021'>0.23346E+02</wgt>
<wgt id='12022'>0.23160E+02</wgt>
<wgt id='12023'>0.23138E+02</wgt>
<wgt id='12024'>0.23283E+02</wgt>
<wgt id='12025'>0.23287E+02</wgt>
<wgt id='12026'>0.23276E+02</wgt>
<wgt id='12027'>0.23323E+02</wgt>
<wgt id='12028'>0.23231E+02</wgt>
<wgt id='12050'>0.23266E+02</wgt>
<wgt id='12051'>0.23264E+02</wgt>
<wgt id='12052'>0.23251E+02</wgt>
<wgt id='12053'>0.23259E+02</wgt>
<wgt id='12054'>0.23256E+02</wgt>
<wgt id='12055'>0.23351E+02</wgt>
<wgt id='12056'>0.23175E+02</wgt>
<wgt id='12057'>0.23189E+02</wgt>
<wgt id='12058'>0.23342E+02</wgt>
<wgt id='12059'>0.23236E+02</wgt>
<wgt id='12060'>0.23304E+02</wgt>
<wgt id='12061'>0.23242E+02</wgt>
<wgt id='12062'>0.23302E+02</wgt>
<wgt id='12063'>0.23063E+02</wgt>
<wgt id='13000'>0.21441E+02</wgt>
<wgt id='13001'>0.21424E+02</wgt>
<wgt id='13002'>0.21456E+02</wgt>
<wgt id='13003'>0.21473E+02</wgt>
<wgt id='13004'>0.21407E+02</wgt>
<wgt id='13005'>0.21490E+02</wgt>
<wgt id='13006'>0.21390E+02</wgt>
<wgt id='13007'>0.21532E+02</wgt>
<wgt id='13008'>0.21350E+02</wgt>
<wgt id='13009'>0.21424E+02</wgt>
<wgt id='13010'>0.21457E+02</wgt>
<wgt id='13011'>0.21499E+02</wgt>
<wgt id='13012'>0.21381E+02</wgt>
<wgt id='13013'>0.21384E+02</wgt>
<wgt id='13014'>0.21496E+02</wgt>
<wgt id='13015'>0.21421E+02</wgt>
<wgt id='13016'>0.21455E+02</wgt>
<wgt id='13017'>0.21430E+02</wgt>
<wgt id='13018'>0.21447E+02</wgt>
<wgt id='13019'>0.21410E+02</wgt>
<wgt id='13020'>0.21469E+02</wgt>
<wgt id='13021'>0.21310E+02</wgt>
<wgt id='13022'>0.21541E+02</wgt>
<wgt id='13023'>0.21413E+02</wgt>
<wgt id='13024'>0.21464E+02</wgt>
<wgt id='13025'>0.21330E+02</wgt>
<wgt id='13026'>0.21498E+02</wgt>
<wgt id='13027'>0.21420E+02</wgt>
<wgt id='13028'>0.21484E+02</wgt>
<wgt id='13050'>0.21441E+02</wgt>
<wgt id='13051'>0.21453E+02</wgt>
<wgt id='13052'>0.21374E+02</wgt>
<wgt id='13053'>0.21444E+02</wgt>
<wgt id='13054'>0.21429E+02</wgt>
<wgt id='13055'>0.21329E+02</wgt>
<wgt id='13056'>0.21447E+02</wgt>
<wgt id='13057'>0.21373E+02</wgt>
<wgt id='13058'>0.21551E+02</wgt>
<wgt id='13059'>0.21382E+02</wgt>
<wgt id='13060'>0.21365E+02</wgt>
<wgt id='13061'>0.21374E+02</wgt>
<wgt id='13062'>0.21614E+02</wgt>
<wgt id='13063'>0.21370E+02</wgt>
<wgt id='14000'>0.21863E+02</wgt>
<wgt id='14001'>0.21859E+02</wgt>
<wgt id='14002'>0.21856E+02</wgt>
<wgt id='14003'>0.21853E+02</wgt>
<wgt id='14004'>0.21849E+02</wgt>
<wgt id='14005'>0.21846E+02</wgt>
<wgt id='14006'>0.21843E+02</wgt>
<wgt id='14007'>0.21839E+02</wgt>
<wgt id='14008'>0.21836E+02</wgt>
<wgt id='14009'>0.21833E+02</wgt>
<wgt id='14010'>0.21829E+02</wgt>
<wgt id='14011'>0.21826E+02</wgt>
<wgt id='14012'>0.21823E+02</wgt>
<wgt id='14013'>0.21820E+02</wgt>
<wgt id='14014'>0.21816E+02</wgt>
<wgt id='14015'>0.21813E+02</wgt>
<wgt id='14016'>0.21810E+02</wgt>
<wgt id='14017'>0.21806E+02</wgt>
<wgt id='14018'>0.21803E+02</wgt>
<wgt id='14019'>0.21800E+02</wgt>
<wgt id='14020'>0.21796E+02</wgt>
<wgt id='14021'>0.21793E+02</wgt>
<wgt id='14022'>0.21790E+02</wgt>
<wgt id='14023'>0.21786E+02</wgt>
<wgt id='14024'>0.21783E+02</wgt>
<wgt id='14025'>0.21780E+02</wgt>
<wgt id='14026'>0.21777E+02</wgt>
<wgt id='14027'>0.21773E+02</wgt>
<wgt id='14028'>0.21770E+02</wgt>
<wgt id='14029'>0.21767E+02</wgt>
<wgt id='14030'>0.21763E+02</wgt>
<wgt id='15000'>0.20825E+02</wgt>
<wgt id='15001'>0.20830E+02</wgt>
<wgt id='15002'>0.20900E+02</wgt>
<wgt id='15003'>0.20698E+02</wgt>
<wgt id='15004'>0.20803E+02</wgt>
<wgt id='15005'>0.20870E+02</wgt>
<wgt id='15006'>0.20816E+02</wgt>
<wgt id='15007'>0.20881E+02</wgt>
<wgt id='15008'>0.20869E+02</wgt>
<wgt id='15009'>0.20806E+02</wgt>
<wgt id='15010'>0.20755E+02</wgt>
<wgt id='15011'>0.21029E+02</wgt>
<wgt id='15012'>0.20689E+02</wgt>
<wgt id='15013'>0.20581E+02</wgt>
<wgt id='15014'>0.20700E+02</wgt>
<wgt id='15015'>0.20824E+02</wgt>
<wgt id='15016'>0.21021E+02</wgt>
<wgt id='15017'>0.20762E+02</wgt>
<wgt id='15018'>0.20772E+02</wgt>
<wgt id='15019'>0.20794E+02</wgt>
<wgt id='15020'>0.20928E+02</wgt>
<wgt id='15021'>0.20804E+02</wgt>
<wgt id='15022'>0.20864E+02</wgt>
<wgt id='15023'>0.20762E+02</wgt>
<wgt id='15024'>0.20793E+02</wgt>
<wgt id='15025'>0.20835E+02</wgt>
<wgt id='15026'>0.20821E+02</wgt>
<wgt id='15027'>0.20798E+02</wgt>
<wgt id='15028'>0.20844E+02</wgt>
<wgt id='15029'>0.20853E+02</wgt>
<wgt id='15030'>0.20842E+02</wgt>
<wgt id='15031'>0.20812E+02</wgt>
<wgt id='15032'>0.20840E+02</wgt>
<wgt id='15033'>0.20849E+02</wgt>
<wgt id='15034'>0.20821E+02</wgt>
<wgt id='15035'>0.20860E+02</wgt>
<wgt id='15036'>0.20827E+02</wgt>
<wgt id='15037'>0.20843E+02</wgt>
<wgt id='15038'>0.20828E+02</wgt>
<wgt id='15039'>0.20825E+02</wgt>
<wgt id='15040'>0.20803E+02</wgt>
<wgt id='15041'>0.20815E+02</wgt>
<wgt id='15042'>0.20819E+02</wgt>
<wgt id='15043'>0.20806E+02</wgt>
<wgt id='15044'>0.20831E+02</wgt>
<wgt id='15045'>0.20820E+02</wgt>
<wgt id='15046'>0.20797E+02</wgt>
<wgt id='15047'>0.20818E+02</wgt>
<wgt id='15048'>0.20831E+02</wgt>
<wgt id='15049'>0.20813E+02</wgt>
<wgt id='15050'>0.20828E+02</wgt>
<wgt id='15051'>0.20834E+02</wgt>
<wgt id='15052'>0.20831E+02</wgt>
<wgt id='15053'>0.20828E+02</wgt>
<wgt id='15054'>0.20816E+02</wgt>
<wgt id='15055'>0.20820E+02</wgt>
<wgt id='15056'>0.20843E+02</wgt>
<wgt id='15057'>0.20824E+02</wgt>
<wgt id='15058'>0.20808E+02</wgt>
<wgt id='15059'>0.20816E+02</wgt>
<wgt id='15060'>0.20819E+02</wgt>
<wgt id='15061'>0.20827E+02</wgt>
<wgt id='15062'>0.20828E+02</wgt>
<wgt id='15063'>0.20834E+02</wgt>
<wgt id='15064'>0.20820E+02</wgt>
<wgt id='15065'>0.20823E+02</wgt>
<wgt id='15066'>0.20826E+02</wgt>
<wgt id='15067'>0.20831E+02</wgt>
<wgt id='15068'>0.20830E+02</wgt>
<wgt id='15069'>0.20837E+02</wgt>
<wgt id='15070'>0.20822E+02</wgt>
<wgt id='15071'>0.20837E+02</wgt>
<wgt id='15072'>0.20838E+02</wgt>
<wgt id='15073'>0.20819E+02</wgt>
<wgt id='15074'>0.20828E+02</wgt>
<wgt id='15075'>0.20824E+02</wgt>
<wgt id='15076'>0.20823E+02</wgt>
<wgt id='15077'>0.20828E+02</wgt>
<wgt id='15078'>0.20827E+02</wgt>
<wgt id='15079'>0.20821E+02</wgt>
<wgt id='15080'>0.20838E+02</wgt>
<wgt id='15081'>0.20823E+02</wgt>
<wgt id='15082'>0.20830E+02</wgt>
<wgt id='15083'>0.20818E+02</wgt>
<wgt id='15084'>0.20818E+02</wgt>
<wgt id='15085'>0.20818E+02</wgt>
<wgt id='15086'>0.20828E+02</wgt>
<wgt id='15087'>0.20811E+02</wgt>
<wgt id='15088'>0.20820E+02</wgt>
<wgt id='15089'>0.20819E+02</wgt>
<wgt id='15090'>0.20828E+02</wgt>
<wgt id='15091'>0.20823E+02</wgt>
<wgt id='15092'>0.20824E+02</wgt>
<wgt id='15093'>0.20821E+02</wgt>
<wgt id='15094'>0.20823E+02</wgt>
<wgt id='15095'>0.20827E+02</wgt>
<wgt id='15096'>0.20820E+02</wgt>
<wgt id='15097'>0.20826E+02</wgt>
<wgt id='15098'>0.20824E+02</wgt>
<wgt id='15099'>0.20820E+02</wgt>
<wgt id='15100'>0.20824E+02</wgt>
<wgt id='15101'>0.20824E+02</wgt>
<wgt id='15102'>0.20823E+02</wgt>
<wgt id='15103'>0.20825E+02</wgt>
<wgt id='15104'>0.20825E+02</wgt>
<wgt id='15105'>0.20825E+02</wgt>
<wgt id='15106'>0.20825E+02</wgt>
<wgt id='15107'>0.20823E+02</wgt>
<wgt id='1500'>0.22222E+02</wgt>
<wgt id='1501'>0.20705E+02</wgt>
<wgt id='1502'>0.22144E+02</wgt>
<wgt id='1503'>0.22317E+02</wgt>
<wgt id='1504'>0.21918E+02</wgt>
<wgt id='1505'>0.20201E+02</wgt>
<wgt id='1506'>0.22707E+02</wgt>
<wgt id='1507'>0.22358E+02</wgt>
<wgt id='1508'>0.22398E+02</wgt>
<wgt id='1509'>0.22444E+02</wgt>
<wgt id='1510'>0.21521E+02</wgt>
<wgt id='1511'>0.21645E+02</wgt>
<wgt id='1512'>0.22637E+02</wgt>
<wgt id='1513'>0.22739E+02</wgt>
<wgt id='1514'>0.21852E+02</wgt>
<wgt id='1515'>0.22760E+02</wgt>
<wgt id='1516'>0.22406E+02</wgt>
<wgt id='1517'>0.22050E+02</wgt>
<wgt id='1518'>0.22073E+02</wgt>
<wgt id='1519'>0.22571E+02</wgt>
<wgt id='1520'>0.22730E+02</wgt>
<wgt id='1521'>0.22475E+02</wgt>
<wgt id='1522'>0.22018E+02</wgt>
<wgt id='1523'>0.23993E+02</wgt>
<wgt id='1524'>0.22197E+02</wgt>
<wgt id='1525'>0.22310E+02</wgt>
<wgt id='1526'>0.22074E+02</wgt>
<wgt id='1527'>0.21951E+02</wgt>
<wgt id='1528'>0.21961E+02</wgt>
<wgt id='1529'>0.22280E+02</wgt>
<wgt id='1530'>0.22820E+02</wgt>
<wgt id='1531'>0.22200E+02</wgt>
<wgt id='1532'>0.21660E+02</wgt>
<wgt id='1533'>0.22013E+02</wgt>
<wgt id='1534'>0.22356E+02</wgt>
<wgt id='1535'>0.22720E+02</wgt>
<wgt id='1536'>0.22362E+02</wgt>
<wgt id='1537'>0.22677E+02</wgt>
<wgt id='1538'>0.22418E+02</wgt>
<wgt id='1539'>0.21692E+02</wgt>
<wgt id='1540'>0.22360E+02</wgt>
<wgt id='1541'>0.22293E+02</wgt>
<wgt id='1542'>0.22215E+02</wgt>
<wgt id='1543'>0.22333E+02</wgt>
<wgt id='1544'>0.22138E+02</wgt>
<wgt id='1545'>0.22077E+02</wgt>
<wgt id='1546'>0.22601E+02</wgt>
<wgt id='1547'>0.21898E+02</wgt>
<wgt id='1548'>0.22012E+02</wgt>
<wgt id='1549'>0.21928E+02</wgt>
<wgt id='1550'>0.22102E+02</wgt>
<wgt id='1551'>0.22136E+02</wgt>
<wgt id='1552'>0.21931E+02</wgt>
<wgt id='1553'>0.22481E+02</wgt>
<wgt id='1554'>0.22455E+02</wgt>
<wgt id='1555'>0.21936E+02</wgt>
<wgt id='1556'>0.21843E+02</wgt>
<wgt id='1557'>0.22628E+02</wgt>
<wgt id='1558'>0.21923E+02</wgt>
<wgt id='1559'>0.22635E+02</wgt>
<wgt id='1560'>0.22105E+02</wgt>
<wgt id='1561'>0.22147E+02</wgt>
<wgt id='1562'>0.22288E+02</wgt>
<wgt id='1563'>0.22341E+02</wgt>
<wgt id='1564'>0.21755E+02</wgt>
<wgt id='1565'>0.22311E+02</wgt>
<wgt id='1566'>0.22377E+02</wgt>
<wgt id='1567'>0.23734E+02</wgt>
<wgt id='1568'>0.21935E+02</wgt>
<wgt id='1569'>0.21595E+02</wgt>
<wgt id='1570'>0.22004E+02</wgt>
<wgt id='1571'>0.22240E+02</wgt>
<wgt id='1572'>0.22424E+02</wgt>
<wgt id='1573'>0.20923E+02</wgt>
<wgt id='1574'>0.22500E+02</wgt>
<wgt id='1575'>0.22005E+02</wgt>
<wgt id='1576'>0.21865E+02</wgt>
<wgt id='1577'>0.22501E+02</wgt>
<wgt id='1578'>0.22916E+02</wgt>
<wgt id='1579'>0.21970E+02</wgt>
<wgt id='1580'>0.22275E+02</wgt>
<wgt id='1581'>0.22376E+02</wgt>
<wgt id='1582'>0.21881E+02</wgt>
<wgt id='1583'>0.22664E+02</wgt>
<wgt id='1584'>0.22083E+02</wgt>
<wgt id='1585'>0.21746E+02</wgt>
<wgt id='1586'>0.22068E+02</wgt>
<wgt id='1587'>0.22220E+02</wgt>
<wgt id='1588'>0.22134E+02</wgt>
<wgt id='1589'>0.22965E+02</wgt>
<wgt id='1590'>0.22106E+02</wgt>
<wgt id='1591'>0.21944E+02</wgt>
<wgt id='1592'>0.22288E+02</wgt>
<wgt id='1593'>0.22134E+02</wgt>
<wgt id='1594'>0.22704E+02</wgt>
<wgt id='1595'>0.21833E+02</wgt>
<wgt id='1596'>0.22533E+02</wgt>
<wgt id='1597'>0.22130E+02</wgt>
<wgt id='1598'>0.22740E+02</wgt>
<wgt id='1599'>0.22583E+02</wgt>
<wgt id='1600'>0.22703E+02</wgt>
<wgt id='1601'>0.21916E+02</wgt>
<wgt id='1602'>0.22394E+02</wgt>
<wgt id='1700'>0.21342E+02</wgt>
<wgt id='1800'>0.25587E+02</wgt>
<wgt id='1850'>0.30473E+02</wgt>
<wgt id='1900'>0.26447E+02</wgt>
<wgt id='1950'>0.30088E+02</wgt>
</rwgt>
</event>
<event>
      4   9999  2.16956E+01  2.19200E+01 -1.00000E+00  1.60368E-01
      21    -1     0     0   502   501  0.000000000E+00  0.000000000E+00  1.342341594E+01  1.342341594E+01  0.000000000E+00  0.00000E+00  9.000E+00
      21    -1     0     0   511   502  0.000000000E+00  0.000000000E+00 -6.529887579E+02  6.529887579E+02  0.000000000E+00  0.00000E+00  9.000E+00
      25     1     1     2     0     0  1.299616437E+01  1.765183654E+01 -2.948718040E+02  3.210223611E+02  1.250019517E+02  0.00000E+00  9.000E+00
      21     1     1     2   511   501 -1.299616437E+01 -1.765183654E+01 -3.446935380E+02  3.453898128E+02  3.814697266E-06  0.00000E+00  9.000E+00
#rwgt            1           1   17.673776800799413                1        6477           0
<rwgt>
<wgt id='1001'>0.21696E+02</wgt>
<wgt id='1002'>0.24279E+02</wgt>
<wgt id='1003'>0.18948E+02</wgt>
<wgt id='1004'>0.17663E+02</wgt>
<wgt id='1005'>0.19658E+02</wgt>
<wgt id='1006'>0.15521E+02</wgt>
<wgt id='1007'>0.27309E+02</wgt>
<wgt id='1008'>0.30755E+02</wgt>
<wgt id='1009'>0.23679E+02</wgt>
<wgt id='2000'>0.21696E+02</wgt>
<wgt id='2001'>0.21661E+02</wgt>
<wgt id='2002'>0.21735E+02</wgt>
<wgt id='2003'>0.21714E+02</wgt>
<wgt id='2004'>0.21706E+02</wgt>
<wgt id='2005'>0.21690E+02</wgt>
<wgt id='2006'>0.21677E+02</wgt>
<wgt id='2007'>0.21683E+02</wgt>
<wgt id='2008'>0.21720E+02</wgt>
<wgt id='2009'>0.21677E+02</wgt>
<wgt id='2010'>0.21668E+02</wgt>
<wgt id='2011'>0.21737E+02</wgt>
<wgt id='2012'>0.21741E+02</wgt>
<wgt id='2013'>0.21728E+02</wgt>
<wgt id='2014'>0.21735E+02</wgt>
<wgt id='2015'>0.21729E+02</wgt>
<wgt id='2016'>0.21712E+02</wgt>
<wgt id='2017'>0.21693E+02</wgt>
<wgt id='2018'>0.21727E+02</wgt>
<wgt id='2019'>0.21696E+02</wgt>
<wgt id='2020'>0.21769E+02</wgt>
<wgt id='2021'>0.21662E+02</wgt>
<wgt id='2022'>0.21762E+02</wgt>
<wgt id='2023'>0.21740E+02</wgt>
<wgt id='2024'>0.21689E+02</wgt>
<wgt id='2025'>0.21781E+02</wgt>
<wgt id='2026'>0.21757E+02</wgt>
<wgt id='2027'>0.21670E+02</wgt>
<wgt id='2028'>0.21649E+02</wgt>
<wgt id='2029'>0.21721E+02</wgt>
<wgt id='2030'>0.21699E+02</wgt>
<wgt id='2031'>0.21723E+02</wgt>
<wgt id='2032'>0.21676E+02</wgt>
<wgt id='2033'>0.21696E+02</wgt>
<wgt id='2034'>0.21719E+02</wgt>
<wgt id='2035'>0.21691E+02</wgt>
<wgt id='2036'>0.21712E+02</wgt>
<wgt id='2037'>0.21707E+02</wgt>
<wgt id='2038'>0.21700E+02</wgt>
<wgt id='2039'>0.21692E+02</wgt>
<wgt id='2040'>0.21711E+02</wgt>
<wgt id='2041'>0.21698E+02</wgt>
<wgt id='2042'>0.21673E+02</wgt>
<wgt id='2043'>0.21713E+02</wgt>
<wgt id='2044'>0.21710E+02</wgt>
<wgt id='2045'>0.21695E+02</wgt>
<wgt id='2046'>0.21703E+02</wgt>
<wgt id='2047'>0.21711E+02</wgt>
<wgt id='2048'>0.21697E+02</wgt>
<wgt id='2049'>0.21697E+02</wgt>
<wgt id='2050'>0.21701E+02</wgt>
<wgt id='2051'>0.21706E+02</wgt>
<wgt id='2052'>0.21688E+02</wgt>
<wgt id='2053'>0.21690E+02</wgt>
<wgt id='2054'>0.21694E+02</wgt>
<wgt id='2055'>0.21699E+02</wgt>
<wgt id='2056'>0.21697E+02</wgt>
<wgt id='2057'>0.21695E+02</wgt>
<wgt id='2058'>0.21704E+02</wgt>
<wgt id='2059'>0.21695E+02</wgt>
<wgt id='2060'>0.21703E+02</wgt>
<wgt id='2061'>0.21689E+02</wgt>
<wgt id='2062'>0.21690E+02</wgt>
<wgt id='2063'>0.21699E+02</wgt>
<wgt id='2064'>0.21686E+02</wgt>
<wgt id='2065'>0.21692E+02</wgt>
<wgt id='2066'>0.21685E+02</wgt>
<wgt id='2067'>0.21696E+02</wgt>
<wgt id='2068'>0.21699E+02</wgt>
<wgt id='2069'>0.21700E+02</wgt>
<wgt id='2070'>0.21699E+02</wgt>
<wgt id='2071'>0.21691E+02</wgt>
<wgt id='2072'>0.21698E+02</wgt>
<wgt id='2073'>0.21695E+02</wgt>
<wgt id='2074'>0.21698E+02</wgt>
<wgt id='2075'>0.21692E+02</wgt>
<wgt id='2076'>0.21699E+02</wgt>
<wgt id='2077'>0.21690E+02</wgt>
<wgt id='2078'>0.21697E+02</wgt>
<wgt id='2079'>0.21700E+02</wgt>
<wgt id='2080'>0.21695E+02</wgt>
<wgt id='2081'>0.21698E+02</wgt>
<wgt id='2082'>0.21698E+02</wgt>
<wgt id='2083'>0.21691E+02</wgt>
<wgt id='2084'>0.21695E+02</wgt>
<wgt id='2085'>0.21691E+02</wgt>
<wgt id='2086'>0.21697E+02</wgt>
<wgt id='2087'>0.21695E+02</wgt>
<wgt id='2088'>0.21696E+02</wgt>
<wgt id='2089'>0.21699E+02</wgt>
<wgt id='2090'>0.21697E+02</wgt>
<wgt id='2091'>0.21692E+02</wgt>
<wgt id='2092'>0.21693E+02</wgt>
<wgt id='2093'>0.21696E+02</wgt>
<wgt id='2094'>0.21693E+02</wgt>
<wgt id='2095'>0.21694E+02</wgt>
<wgt id='2096'>0.21695E+02</wgt>
<wgt id='2097'>0.21698E+02</wgt>
<wgt id='2098'>0.21693E+02</wgt>
<wgt id='2099'>0.21699E+02</wgt>
<wgt id='2100'>0.21694E+02</wgt>
<wgt id='2101'>0.21042E+02</wgt>
<wgt id='2102'>0.22319E+02</wgt>
<wgt id='2104'>0.18655E+02</wgt>
<wgt id='2105'>0.19216E+02</wgt>
<wgt id='2106'>0.19826E+02</wgt>
<wgt id='2107'>0.20450E+02</wgt>
<wgt id='2108'>0.21389E+02</wgt>
<wgt id='2109'>0.22037E+02</wgt>
<wgt id='2110'>0.22897E+02</wgt>
<wgt id='2111'>0.23529E+02</wgt>
<wgt id='3000'>0.22767E+02</wgt>
<wgt id='3001'>0.22808E+02</wgt>
<wgt id='3002'>0.22723E+02</wgt>
<wgt id='3003'>0.22790E+02</wgt>
<wgt id='3004'>0.22790E+02</wgt>
<wgt id='3005'>0.22790E+02</wgt>
<wgt id='3006'>0.22770E+02</wgt>
<wgt id='3007'>0.22749E+02</wgt>
<wgt id='3008'>0.22745E+02</wgt>
<wgt id='3009'>0.22696E+02</wgt>
<wgt id='3010'>0.22728E+02</wgt>
<wgt id='3011'>0.22794E+02</wgt>
<wgt id='3012'>0.22831E+02</wgt>
<wgt id='3013'>0.22720E+02</wgt>
<wgt id='3014'>0.22786E+02</wgt>
<wgt id='3015'>0.22763E+02</wgt>
<wgt id='3016'>0.22779E+02</wgt>
<wgt id='3017'>0.22791E+02</wgt>
<wgt id='3018'>0.22810E+02</wgt>
<wgt id='3019'>0.22728E+02</wgt>
<wgt id='3020'>0.22709E+02</wgt>
<wgt id='3021'>0.22692E+02</wgt>
<wgt id='3022'>0.22762E+02</wgt>
<wgt id='3023'>0.22717E+02</wgt>
<wgt id='3024'>0.22698E+02</wgt>
<wgt id='3025'>0.22768E+02</wgt>
<wgt id='3026'>0.22815E+02</wgt>
<wgt id='3027'>0.22773E+02</wgt>
<wgt id='3028'>0.22690E+02</wgt>
<wgt id='3029'>0.22743E+02</wgt>
<wgt id='3030'>0.22798E+02</wgt>
<wgt id='3031'>0.22782E+02</wgt>
<wgt id='3032'>0.22794E+02</wgt>
<wgt id='3033'>0.22797E+02</wgt>
<wgt id='3034'>0.22781E+02</wgt>
<wgt id='3035'>0.22792E+02</wgt>
<wgt id='3036'>0.22774E+02</wgt>
<wgt id='3037'>0.22770E+02</wgt>
<wgt id='3038'>0.22769E+02</wgt>
<wgt id='3039'>0.22746E+02</wgt>
<wgt id='3040'>0.22775E+02</wgt>
<wgt id='3041'>0.22779E+02</wgt>
<wgt id='3042'>0.22746E+02</wgt>
<wgt id='3043'>0.22750E+02</wgt>
<wgt id='3044'>0.22767E+02</wgt>
<wgt id='3045'>0.22781E+02</wgt>
<wgt id='3046'>0.22777E+02</wgt>
<wgt id='3047'>0.22760E+02</wgt>
<wgt id='3048'>0.22782E+02</wgt>
<wgt id='3049'>0.22764E+02</wgt>
<wgt id='3050'>0.22771E+02</wgt>
<wgt id='3051'>0.22788E+02</wgt>
<wgt id='3052'>0.22763E+02</wgt>
<wgt id='3053'>0.22761E+02</wgt>
<wgt id='3054'>0.22761E+02</wgt>
<wgt id='3055'>0.22767E+02</wgt>
<wgt id='3056'>0.22769E+02</wgt>
<wgt id='3057'>0.22756E+02</wgt>
<wgt id='3058'>0.22762E+02</wgt>
<wgt id='3059'>0.22765E+02</wgt>
<wgt id='3060'>0.22768E+02</wgt>
<wgt id='3061'>0.22770E+02</wgt>
<wgt id='3062'>0.22766E+02</wgt>
<wgt id='3063'>0.22772E+02</wgt>
<wgt id='3064'>0.22765E+02</wgt>
<wgt id='3065'>0.22771E+02</wgt>
<wgt id='3066'>0.22768E+02</wgt>
<wgt id='3067'>0.22763E+02</wgt>
<wgt id='3068'>0.22764E+02</wgt>
<wgt id='3069'>0.22758E+02</wgt>
<wgt id='3070'>0.22762E+02</wgt>
<wgt id='3071'>0.22768E+02</wgt>
<wgt id='3072'>0.22772E+02</wgt>
<wgt id='3073'>0.22768E+02</wgt>
<wgt id='3074'>0.22771E+02</wgt>
<wgt id='3075'>0.22772E+02</wgt>
<wgt id='3076'>0.22767E+02</wgt>
<wgt id='3077'>0.22765E+02</wgt>
<wgt id='3078'>0.22770E+02</wgt>
<wgt id='3079'>0.22764E+02</wgt>
<wgt id='3080'>0.22763E+02</wgt>
<wgt id='3081'>0.22764E+02</wgt>
<wgt id='3082'>0.22764E+02</wgt>
<wgt id='3083'>0.22768E+02</wgt>
<wgt id='3084'>0.22765E+02</wgt>
<wgt id='3085'>0.22771E+02</wgt>
<wgt id='3086'>0.22772E+02</wgt>
<wgt id='3087'>0.22767E+02</wgt>
<wgt id='3088'>0.22764E+02</wgt>
<wgt id='3089'>0.22768E+02</wgt>
<wgt id='3090'>0.22769E+02</wgt>
<wgt id='3091'>0.22765E+02</wgt>
<wgt id='3092'>0.22763E+02</wgt>
<wgt id='3093'>0.22768E+02</wgt>
<wgt id='3094'>0.22770E+02</wgt>
<wgt id='3095'>0.22767E+02</wgt>
<wgt id='3096'>0.22761E+02</wgt>
<wgt id='3097'>0.22764E+02</wgt>
<wgt id='3098'>0.22762E+02</wgt>
<wgt id='3099'>0.22767E+02</wgt>
<wgt id='3100'>0.22769E+02</wgt>
<wgt id='3101'>0.22070E+02</wgt>
<wgt id='3102'>0.23519E+02</wgt>
<wgt id='5000'>0.20982E+02</wgt>
<wgt id='5001'>0.20942E+02</wgt>
<wgt id='5002'>0.20938E+02</wgt>
<wgt id='5003'>0.20923E+02</wgt>
<wgt id='5004'>0.20964E+02</wgt>
<wgt id='5005'>0.20746E+02</wgt>
<wgt id='5006'>0.20978E+02</wgt>
<wgt id='5007'>0.20945E+02</wgt>
<wgt id='5008'>0.20902E+02</wgt>
<wgt id='5009'>0.21102E+02</wgt>
<wgt id='5010'>0.20908E+02</wgt>
<wgt id='5011'>0.20980E+02</wgt>
<wgt id='5012'>0.20946E+02</wgt>
<wgt id='5013'>0.20707E+02</wgt>
<wgt id='5014'>0.21054E+02</wgt>
<wgt id='5015'>0.21092E+02</wgt>
<wgt id='5016'>0.20634E+02</wgt>
<wgt id='5017'>0.20951E+02</wgt>
<wgt id='5018'>0.21018E+02</wgt>
<wgt id='5019'>0.20942E+02</wgt>
<wgt id='5020'>0.21025E+02</wgt>
<wgt id='5021'>0.21030E+02</wgt>
<wgt id='5022'>0.20951E+02</wgt>
<wgt id='5023'>0.20899E+02</wgt>
<wgt id='5024'>0.21069E+02</wgt>
<wgt id='5025'>0.20973E+02</wgt>
<wgt id='5026'>0.20990E+02</wgt>
<wgt id='5027'>0.21163E+02</wgt>
<wgt id='5028'>0.20676E+02</wgt>
<wgt id='5029'>0.20651E+02</wgt>
<wgt id='5030'>0.21181E+02</wgt>
<wgt id='5031'>0.20788E+02</wgt>
<wgt id='5032'>0.21261E+02</wgt>
<wgt id='5033'>0.20871E+02</wgt>
<wgt id='5034'>0.21076E+02</wgt>
<wgt id='5035'>0.20761E+02</wgt>
<wgt id='5036'>0.21166E+02</wgt>
<wgt id='5037'>0.20845E+02</wgt>
<wgt id='5038'>0.21129E+02</wgt>
<wgt id='5039'>0.21331E+02</wgt>
<wgt id='5040'>0.20805E+02</wgt>
<wgt id='5041'>0.20869E+02</wgt>
<wgt id='5042'>0.20981E+02</wgt>
<wgt id='5043'>0.21106E+02</wgt>
<wgt id='5044'>0.20586E+02</wgt>
<wgt id='5045'>0.21358E+02</wgt>
<wgt id='5046'>0.20857E+02</wgt>
<wgt id='5047'>0.21031E+02</wgt>
<wgt id='5048'>0.21114E+02</wgt>
<wgt id='5049'>0.20988E+02</wgt>
<wgt id='5050'>0.21022E+02</wgt>
<wgt id='5051'>0.21017E+02</wgt>
<wgt id='5052'>0.20978E+02</wgt>
<wgt id='5053'>0.20666E+02</wgt>
<wgt id='5054'>0.21006E+02</wgt>
<wgt id='5055'>0.20855E+02</wgt>
<wgt id='5056'>0.21167E+02</wgt>
<wgt id='5060'>0.20301E+02</wgt>
<wgt id='5070'>0.21639E+02</wgt>
<wgt id='4000'>0.22097E+02</wgt>
<wgt id='4001'>0.22110E+02</wgt>
<wgt id='4002'>0.22145E+02</wgt>
<wgt id='4003'>0.22211E+02</wgt>
<wgt id='4004'>0.22027E+02</wgt>
<wgt id='4005'>0.22158E+02</wgt>
<wgt id='4006'>0.22054E+02</wgt>
<wgt id='4007'>0.22210E+02</wgt>
<wgt id='4008'>0.22067E+02</wgt>
<wgt id='4009'>0.21791E+02</wgt>
<wgt id='4010'>0.22252E+02</wgt>
<wgt id='4011'>0.22376E+02</wgt>
<wgt id='4012'>0.21931E+02</wgt>
<wgt id='4013'>0.21467E+02</wgt>
<wgt id='4014'>0.22454E+02</wgt>
<wgt id='4015'>0.22346E+02</wgt>
<wgt id='4016'>0.21938E+02</wgt>
<wgt id='4017'>0.21842E+02</wgt>
<wgt id='4018'>0.22400E+02</wgt>
<wgt id='4019'>0.22324E+02</wgt>
<wgt id='4020'>0.21843E+02</wgt>
<wgt id='4021'>0.22132E+02</wgt>
<wgt id='4022'>0.22018E+02</wgt>
<wgt id='4023'>0.22028E+02</wgt>
<wgt id='4024'>0.22156E+02</wgt>
<wgt id='4025'>0.21960E+02</wgt>
<wgt id='4026'>0.22220E+02</wgt>
<wgt id='4027'>0.22047E+02</wgt>
<wgt id='4028'>0.22163E+02</wgt>
<wgt id='4029'>0.21974E+02</wgt>
<wgt id='4030'>0.22140E+02</wgt>
<wgt id='4031'>0.22132E+02</wgt>
<wgt id='4032'>0.22052E+02</wgt>
<wgt id='4033'>0.22062E+02</wgt>
<wgt id='4034'>0.22174E+02</wgt>
<wgt id='4035'>0.22292E+02</wgt>
<wgt id='4036'>0.21912E+02</wgt>
<wgt id='4037'>0.22205E+02</wgt>
<wgt id='4038'>0.21905E+02</wgt>
<wgt id='4039'>0.22064E+02</wgt>
<wgt id='4040'>0.22095E+02</wgt>
<wgt id='4041'>0.22211E+02</wgt>
<wgt id='4042'>0.21997E+02</wgt>
<wgt id='4043'>0.22177E+02</wgt>
<wgt id='4044'>0.22050E+02</wgt>
<wgt id='4045'>0.21834E+02</wgt>
<wgt id='4046'>0.22083E+02</wgt>
<wgt id='4047'>0.21981E+02</wgt>
<wgt id='4048'>0.22043E+02</wgt>
<wgt id='4049'>0.21958E+02</wgt>
<wgt id='4050'>0.21945E+02</wgt>
<wgt id='4051'>0.22056E+02</wgt>
<wgt id='4052'>0.22071E+02</wgt>
<wgt id='4053'>0.21491E+02</wgt>
<wgt id='4054'>0.22126E+02</wgt>
<wgt id='4055'>0.21972E+02</wgt>
<wgt id='4056'>0.22275E+02</wgt>
<wgt id='4060'>0.21327E+02</wgt>
<wgt id='4070'>0.22854E+02</wgt>
<wgt id='4080'>0.22656E+02</wgt>
<wgt id='6000'>0.22471E+02</wgt>
<wgt id='6001'>0.22493E+02</wgt>
<wgt id='6002'>0.22446E+02</wgt>
<wgt id='6003'>0.22482E+02</wgt>
<wgt id='6004'>0.22462E+02</wgt>
<wgt id='6005'>0.22510E+02</wgt>
<wgt id='6006'>0.22433E+02</wgt>
<wgt id='6007'>0.22391E+02</wgt>
<wgt id='6008'>0.22559E+02</wgt>
<wgt id='6009'>0.22556E+02</wgt>
<wgt id='6010'>0.22386E+02</wgt>
<wgt id='6011'>0.22520E+02</wgt>
<wgt id='6012'>0.22363E+02</wgt>
<wgt id='6013'>0.22445E+02</wgt>
<wgt id='6014'>0.22516E+02</wgt>
<wgt id='6015'>0.22407E+02</wgt>
<wgt id='6016'>0.22506E+02</wgt>
<wgt id='6017'>0.22339E+02</wgt>
<wgt id='6018'>0.22626E+02</wgt>
<wgt id='6019'>0.22484E+02</wgt>
<wgt id='6020'>0.22458E+02</wgt>
<wgt id='6021'>0.22423E+02</wgt>
<wgt id='6022'>0.22534E+02</wgt>
<wgt id='6023'>0.22317E+02</wgt>
<wgt id='6024'>0.22579E+02</wgt>
<wgt id='6025'>0.22379E+02</wgt>
<wgt id='6026'>0.22496E+02</wgt>
<wgt id='6027'>0.22532E+02</wgt>
<wgt id='6028'>0.22470E+02</wgt>
<wgt id='6029'>0.22547E+02</wgt>
<wgt id='6030'>0.22380E+02</wgt>
<wgt id='6031'>0.22451E+02</wgt>
<wgt id='6032'>0.22482E+02</wgt>
<wgt id='6033'>0.22520E+02</wgt>
<wgt id='6034'>0.22419E+02</wgt>
<wgt id='6035'>0.22473E+02</wgt>
<wgt id='6036'>0.22504E+02</wgt>
<wgt id='6037'>0.22509E+02</wgt>
<wgt id='6038'>0.22469E+02</wgt>
<wgt id='6039'>0.22438E+02</wgt>
<wgt id='6040'>0.22504E+02</wgt>
<wgt id='6041'>0.22424E+02</wgt>
<wgt id='6042'>0.22528E+02</wgt>
<wgt id='6043'>0.22759E+02</wgt>
<wgt id='6044'>0.22354E+02</wgt>
<wgt id='6045'>0.22454E+02</wgt>
<wgt id='6046'>0.22516E+02</wgt>
<wgt id='6047'>0.22567E+02</wgt>
<wgt id='6048'>0.22246E+02</wgt>
<wgt id='6049'>0.22516E+02</wgt>
<wgt id='6050'>0.22440E+02</wgt>
<wgt id='7000'>0.21095E+02</wgt>
<wgt id='7001'>0.21105E+02</wgt>
<wgt id='7002'>0.21081E+02</wgt>
<wgt id='7003'>0.21153E+02</wgt>
<wgt id='7004'>0.21037E+02</wgt>
<wgt id='7005'>0.21131E+02</wgt>
<wgt id='7006'>0.21080E+02</wgt>
<wgt id='7007'>0.21015E+02</wgt>
<wgt id='7008'>0.21174E+02</wgt>
<wgt id='7009'>0.21135E+02</wgt>
<wgt id='7010'>0.21054E+02</wgt>
<wgt id='7011'>0.20887E+02</wgt>
<wgt id='7012'>0.21184E+02</wgt>
<wgt id='7013'>0.21093E+02</wgt>
<wgt id='7014'>0.21095E+02</wgt>
<wgt id='7015'>0.21033E+02</wgt>
<wgt id='7016'>0.21161E+02</wgt>
<wgt id='7017'>0.20984E+02</wgt>
<wgt id='7018'>0.21153E+02</wgt>
<wgt id='7019'>0.21072E+02</wgt>
<wgt id='7020'>0.21125E+02</wgt>
<wgt id='7021'>0.21089E+02</wgt>
<wgt id='7022'>0.21098E+02</wgt>
<wgt id='7023'>0.21246E+02</wgt>
<wgt id='7024'>0.20937E+02</wgt>
<wgt id='7025'>0.21162E+02</wgt>
<wgt id='7026'>0.20930E+02</wgt>
<wgt id='7027'>0.21173E+02</wgt>
<wgt id='7028'>0.21070E+02</wgt>
<wgt id='7029'>0.21045E+02</wgt>
<wgt id='7030'>0.21211E+02</wgt>
<wgt id='7031'>0.21078E+02</wgt>
<wgt id='7032'>0.21133E+02</wgt>
<wgt id='7033'>0.21083E+02</wgt>
<wgt id='7034'>0.21131E+02</wgt>
<wgt id='7035'>0.21108E+02</wgt>
<wgt id='7036'>0.21099E+02</wgt>
<wgt id='7037'>0.21100E+02</wgt>
<wgt id='7038'>0.21106E+02</wgt>
<wgt id='7039'>0.21059E+02</wgt>
<wgt id='7040'>0.21120E+02</wgt>
<wgt id='7041'>0.21062E+02</wgt>
<wgt id='7042'>0.21128E+02</wgt>
<wgt id='7043'>0.21111E+02</wgt>
<wgt id='7044'>0.21002E+02</wgt>
<wgt id='7045'>0.20917E+02</wgt>
<wgt id='7046'>0.21197E+02</wgt>
<wgt id='7047'>0.21146E+02</wgt>
<wgt id='7048'>0.21070E+02</wgt>
<wgt id='7049'>0.21049E+02</wgt>
<wgt id='7050'>0.21116E+02</wgt>
<wgt id='7060'>0.34495E+02</wgt>
<wgt id='8000'>0.21342E+02</wgt>
<wgt id='8001'>0.21336E+02</wgt>
<wgt id='8002'>0.21348E+02</wgt>
<wgt id='8003'>0.21344E+02</wgt>
<wgt id='8004'>0.21342E+02</wgt>
<wgt id='8005'>0.21292E+02</wgt>
<wgt id='8006'>0.21334E+02</wgt>
<wgt id='8007'>0.21323E+02</wgt>
<wgt id='8008'>0.21381E+02</wgt>
<wgt id='8009'>0.21422E+02</wgt>
<wgt id='8010'>0.21341E+02</wgt>
<wgt id='8011'>0.21334E+02</wgt>
<wgt id='8012'>0.21312E+02</wgt>
<wgt id='8013'>0.21331E+02</wgt>
<wgt id='8014'>0.21341E+02</wgt>
<wgt id='8015'>0.21325E+02</wgt>
<wgt id='8016'>0.21353E+02</wgt>
<wgt id='8017'>0.21346E+02</wgt>
<wgt id='8018'>0.21353E+02</wgt>
<wgt id='8019'>0.21367E+02</wgt>
<wgt id='8020'>0.21294E+02</wgt>
<wgt id='8021'>0.21340E+02</wgt>
<wgt id='8022'>0.21253E+02</wgt>
<wgt id='8023'>0.21351E+02</wgt>
<wgt id='8024'>0.21358E+02</wgt>
<wgt id='8025'>0.21389E+02</wgt>
<wgt id='8026'>0.21380E+02</wgt>
<wgt id='8027'>0.21318E+02</wgt>
<wgt id='8028'>0.21363E+02</wgt>
<wgt id='8029'>0.21213E+02</wgt>
<wgt id='8500'>0.22335E+02</wgt>
<wgt id='8501'>0.22248E+02</wgt>
<wgt id='8502'>0.22428E+02</wgt>
<wgt id='8503'>0.22423E+02</wgt>
<wgt id='8504'>0.22292E+02</wgt>
<wgt id='8505'>0.22320E+02</wgt>
<wgt id='8506'>0.22318E+02</wgt>
<wgt id='8507'>0.22396E+02</wgt>
<wgt id='8508'>0.22417E+02</wgt>
<wgt id='8509'>0.22322E+02</wgt>
<wgt id='8510'>0.22603E+02</wgt>
<wgt id='8511'>0.22343E+02</wgt>
<wgt id='8512'>0.22174E+02</wgt>
<wgt id='8513'>0.22356E+02</wgt>
<wgt id='8514'>0.22127E+02</wgt>
<wgt id='8515'>0.22398E+02</wgt>
<wgt id='8516'>0.22358E+02</wgt>
<wgt id='8517'>0.22235E+02</wgt>
<wgt id='8518'>0.22269E+02</wgt>
<wgt id='8519'>0.22267E+02</wgt>
<wgt id='8520'>0.22327E+02</wgt>
<wgt id='8521'>0.22229E+02</wgt>
<wgt id='8522'>0.22364E+02</wgt>
<wgt id='8523'>0.22275E+02</wgt>
<wgt id='8524'>0.22324E+02</wgt>
<wgt id='8525'>0.22320E+02</wgt>
<wgt id='8526'>0.22301E+02</wgt>
<wgt id='8527'>0.22336E+02</wgt>
<wgt id='8528'>0.22278E+02</wgt>
<wgt id='8529'>0.22310E+02</wgt>
<wgt id='8530'>0.22334E+02</wgt>
<wgt id='8531'>0.22327E+02</wgt>
<wgt id='8532'>0.22337E+02</wgt>
<wgt id='8533'>0.22288E+02</wgt>
<wgt id='8534'>0.22340E+02</wgt>
<wgt id='8535'>0.22387E+02</wgt>
<wgt id='8536'>0.22319E+02</wgt>
<wgt id='8537'>0.22342E+02</wgt>
<wgt id='8538'>0.22318E+02</wgt>
<wgt id='8539'>0.22339E+02</wgt>
<wgt id='8540'>0.22337E+02</wgt>
<wgt id='8541'>0.22345E+02</wgt>
<wgt id='8542'>0.22348E+02</wgt>
<wgt id='8543'>0.22315E+02</wgt>
<wgt id='8544'>0.22352E+02</wgt>
<wgt id='8545'>0.22351E+02</wgt>
<wgt id='8546'>0.22359E+02</wgt>
<wgt id='8547'>0.22319E+02</wgt>
<wgt id='8548'>0.22316E+02</wgt>
<wgt id='8549'>0.22334E+02</wgt>
<wgt id='8550'>0.22335E+02</wgt>
<wgt id='8551'>0.22315E+02</wgt>
<wgt id='8552'>0.22336E+02</wgt>
<wgt id='8553'>0.22322E+02</wgt>
<wgt id='8554'>0.22327E+02</wgt>
<wgt id='8555'>0.22336E+02</wgt>
<wgt id='8556'>0.22332E+02</wgt>
<wgt id='8557'>0.22330E+02</wgt>
<wgt id='8558'>0.22359E+02</wgt>
<wgt id='8559'>0.22323E+02</wgt>
<wgt id='8560'>0.22310E+02</wgt>
<wgt id='8561'>0.22332E+02</wgt>
<wgt id='8562'>0.22317E+02</wgt>
<wgt id='8563'>0.22336E+02</wgt>
<wgt id='8564'>0.22328E+02</wgt>
<wgt id='8565'>0.22334E+02</wgt>
<wgt id='8566'>0.22332E+02</wgt>
<wgt id='8567'>0.22332E+02</wgt>
<wgt id='8568'>0.22344E+02</wgt>
<wgt id='8569'>0.22341E+02</wgt>
<wgt id='8570'>0.22334E+02</wgt>
<wgt id='8571'>0.22325E+02</wgt>
<wgt id='8572'>0.22326E+02</wgt>
<wgt id='8573'>0.22325E+02</wgt>
<wgt id='8574'>0.22339E+02</wgt>
<wgt id='8575'>0.22333E+02</wgt>
<wgt id='8576'>0.22332E+02</wgt>
<wgt id='8577'>0.22333E+02</wgt>
<wgt id='8578'>0.22336E+02</wgt>
<wgt id='8579'>0.22349E+02</wgt>
<wgt id='8580'>0.22335E+02</wgt>
<wgt id='8581'>0.22339E+02</wgt>
<wgt id='8582'>0.22320E+02</wgt>
<wgt id='8583'>0.22344E+02</wgt>
<wgt id='8584'>0.22341E+02</wgt>
<wgt id='8585'>0.22339E+02</wgt>
<wgt id='8586'>0.22347E+02</wgt>
<wgt id='8587'>0.22332E+02</wgt>
<wgt id='8588'>0.22329E+02</wgt>
<wgt id='8589'>0.22336E+02</wgt>
<wgt id='8590'>0.22333E+02</wgt>
<wgt id='8591'>0.22331E+02</wgt>
<wgt id='8592'>0.22334E+02</wgt>
<wgt id='8593'>0.22326E+02</wgt>
<wgt id='8594'>0.22337E+02</wgt>
<wgt id='8595'>0.22337E+02</wgt>
<wgt id='8596'>0.22329E+02</wgt>
<wgt id='8597'>0.22338E+02</wgt>
<wgt id='8598'>0.22340E+02</wgt>
<wgt id='8599'>0.22338E+02</wgt>
<wgt id='8600'>0.22335E+02</wgt>
<wgt id='8601'>0.21811E+02</wgt>
<wgt id='8602'>0.22826E+02</wgt>
<wgt id='9000'>0.21148E+02</wgt>
<wgt id='9001'>0.21157E+02</wgt>
<wgt id='9002'>0.21209E+02</wgt>
<wgt id='9003'>0.21042E+02</wgt>
<wgt id='9004'>0.21131E+02</wgt>
<wgt id='9005'>0.21181E+02</wgt>
<wgt id='9006'>0.21153E+02</wgt>
<wgt id='9007'>0.21211E+02</wgt>
<wgt id='9008'>0.21191E+02</wgt>
<wgt id='9009'>0.21130E+02</wgt>
<wgt id='9010'>0.21083E+02</wgt>
<wgt id='9011'>0.21334E+02</wgt>
<wgt id='9012'>0.21031E+02</wgt>
<wgt id='9013'>0.20931E+02</wgt>
<wgt id='9014'>0.21038E+02</wgt>
<wgt id='9015'>0.21142E+02</wgt>
<wgt id='9016'>0.21334E+02</wgt>
<wgt id='9017'>0.21085E+02</wgt>
<wgt id='9018'>0.21106E+02</wgt>
<wgt id='9019'>0.21126E+02</wgt>
<wgt id='9020'>0.21261E+02</wgt>
<wgt id='9021'>0.21126E+02</wgt>
<wgt id='9022'>0.21182E+02</wgt>
<wgt id='9023'>0.21084E+02</wgt>
<wgt id='9024'>0.21111E+02</wgt>
<wgt id='9025'>0.21167E+02</wgt>
<wgt id='9026'>0.21143E+02</wgt>
<wgt id='9027'>0.21124E+02</wgt>
<wgt id='9028'>0.21168E+02</wgt>
<wgt id='9029'>0.21174E+02</wgt>
<wgt id='9030'>0.21158E+02</wgt>
<wgt id='9031'>0.21137E+02</wgt>
<wgt id='9032'>0.21165E+02</wgt>
<wgt id='9033'>0.21173E+02</wgt>
<wgt id='9034'>0.21144E+02</wgt>
<wgt id='9035'>0.21181E+02</wgt>
<wgt id='9036'>0.21152E+02</wgt>
<wgt id='9037'>0.21166E+02</wgt>
<wgt id='9038'>0.21153E+02</wgt>
<wgt id='9039'>0.21150E+02</wgt>
<wgt id='9040'>0.21127E+02</wgt>
<wgt id='9041'>0.21140E+02</wgt>
<wgt id='9042'>0.21144E+02</wgt>
<wgt id='9043'>0.21130E+02</wgt>
<wgt id='9044'>0.21153E+02</wgt>
<wgt id='9045'>0.21146E+02</wgt>
<wgt id='9046'>0.21121E+02</wgt>
<wgt id='9047'>0.21143E+02</wgt>
<wgt id='9048'>0.21154E+02</wgt>
<wgt id='9049'>0.21135E+02</wgt>
<wgt id='9050'>0.21150E+02</wgt>
<wgt id='9051'>0.21159E+02</wgt>
<wgt id='9052'>0.21155E+02</wgt>
<wgt id='9053'>0.21150E+02</wgt>
<wgt id='9054'>0.21139E+02</wgt>
<wgt id='9055'>0.21141E+02</wgt>
<wgt id='9056'>0.21165E+02</wgt>
<wgt id='9057'>0.21148E+02</wgt>
<wgt id='9058'>0.21131E+02</wgt>
<wgt id='9059'>0.21138E+02</wgt>
<wgt id='9060'>0.21140E+02</wgt>
<wgt id='9061'>0.21150E+02</wgt>
<wgt id='9062'>0.21151E+02</wgt>
<wgt id='9063'>0.21157E+02</wgt>
<wgt id='9064'>0.21143E+02</wgt>
<wgt id='9065'>0.21147E+02</wgt>
<wgt id='9066'>0.21150E+02</wgt>
<wgt id='9067'>0.21154E+02</wgt>
<wgt id='9068'>0.21153E+02</wgt>
<wgt id='9069'>0.21160E+02</wgt>
<wgt id='9070'>0.21144E+02</wgt>
<wgt id='9071'>0.21161E+02</wgt>
<wgt id='9072'>0.21162E+02</wgt>
<wgt id='9073'>0.21142E+02</wgt>
<wgt id='9074'>0.21150E+02</wgt>
<wgt id='9075'>0.21146E+02</wgt>
<wgt id='9076'>0.21146E+02</wgt>
<wgt id='9077'>0.21152E+02</wgt>
<wgt id='9078'>0.21150E+02</wgt>
<wgt id='9079'>0.21145E+02</wgt>
<wgt id='9080'>0.21163E+02</wgt>
<wgt id='9081'>0.21146E+02</wgt>
<wgt id='9082'>0.21153E+02</wgt>
<wgt id='9083'>0.21140E+02</wgt>
<wgt id='9084'>0.21141E+02</wgt>
<wgt id='9085'>0.21141E+02</wgt>
<wgt id='9086'>0.21151E+02</wgt>
<wgt id='9087'>0.21133E+02</wgt>
<wgt id='9088'>0.21142E+02</wgt>
<wgt id='9089'>0.21142E+02</wgt>
<wgt id='9090'>0.21151E+02</wgt>
<wgt id='9091'>0.21145E+02</wgt>
<wgt id='9092'>0.21147E+02</wgt>
<wgt id='9093'>0.21144E+02</wgt>
<wgt id='9094'>0.21146E+02</wgt>
<wgt id='9095'>0.21150E+02</wgt>
<wgt id='9096'>0.21143E+02</wgt>
<wgt id='9097'>0.21149E+02</wgt>
<wgt id='9098'>0.21147E+02</wgt>
<wgt id='9099'>0.21143E+02</wgt>
<wgt id='9100'>0.21147E+02</wgt>
<wgt id='9101'>0.20726E+02</wgt>
<wgt id='9102'>0.21558E+02</wgt>
<wgt id='10000'>0.22327E+02</wgt>
<wgt id='10001'>0.22407E+02</wgt>
<wgt id='10002'>0.22230E+02</wgt>
<wgt id='10003'>0.22319E+02</wgt>
<wgt id='10004'>0.22240E+02</wgt>
<wgt id='10005'>0.22705E+02</wgt>
<wgt id='10006'>0.22283E+02</wgt>
<wgt id='10007'>0.22313E+02</wgt>
<wgt id='10008'>0.22378E+02</wgt>
<wgt id='10009'>0.22278E+02</wgt>
<wgt id='10010'>0.22360E+02</wgt>
<wgt id='10011'>0.22296E+02</wgt>
<wgt id='10012'>0.22296E+02</wgt>
<wgt id='10013'>0.22330E+02</wgt>
<wgt id='10014'>0.22312E+02</wgt>
<wgt id='10015'>0.22347E+02</wgt>
<wgt id='10016'>0.22298E+02</wgt>
<wgt id='10017'>0.22209E+02</wgt>
<wgt id='10018'>0.22354E+02</wgt>
<wgt id='10019'>0.22302E+02</wgt>
<wgt id='10020'>0.22298E+02</wgt>
<wgt id='10021'>0.22316E+02</wgt>
<wgt id='10022'>0.22309E+02</wgt>
<wgt id='10023'>0.22333E+02</wgt>
<wgt id='10024'>0.22305E+02</wgt>
<wgt id='10025'>0.22308E+02</wgt>
<wgt id='10026'>0.22375E+02</wgt>
<wgt id='10027'>0.22366E+02</wgt>
<wgt id='10028'>0.22493E+02</wgt>
<wgt id='10029'>0.22354E+02</wgt>
<wgt id='10030'>0.22319E+02</wgt>
<wgt id='10031'>0.21811E+02</wgt>
<wgt id='10032'>0.22826E+02</wgt>
<wgt id='11000'>0.21140E+02</wgt>
<wgt id='11001'>0.21006E+02</wgt>
<wgt id='11002'>0.21199E+02</wgt>
<wgt id='11003'>0.21116E+02</wgt>
<wgt id='11004'>0.21200E+02</wgt>
<wgt id='11005'>0.20950E+02</wgt>
<wgt id='11006'>0.21148E+02</wgt>
<wgt id='11007'>0.21096E+02</wgt>
<wgt id='11008'>0.21091E+02</wgt>
<wgt id='11009'>0.21071E+02</wgt>
<wgt id='11010'>0.21266E+02</wgt>
<wgt id='11011'>0.21070E+02</wgt>
<wgt id='11012'>0.21153E+02</wgt>
<wgt id='11013'>0.21194E+02</wgt>
<wgt id='11014'>0.21102E+02</wgt>
<wgt id='11015'>0.21125E+02</wgt>
<wgt id='11016'>0.21125E+02</wgt>
<wgt id='11017'>0.21260E+02</wgt>
<wgt id='11018'>0.21132E+02</wgt>
<wgt id='11019'>0.21131E+02</wgt>
<wgt id='11020'>0.21184E+02</wgt>
<wgt id='11021'>0.21177E+02</wgt>
<wgt id='11022'>0.21423E+02</wgt>
<wgt id='11023'>0.21146E+02</wgt>
<wgt id='11024'>0.21155E+02</wgt>
<wgt id='11025'>0.21126E+02</wgt>
<wgt id='11026'>0.21146E+02</wgt>
<wgt id='11027'>0.21136E+02</wgt>
<wgt id='11028'>0.21156E+02</wgt>
<wgt id='11029'>0.21159E+02</wgt>
<wgt id='11030'>0.21139E+02</wgt>
<wgt id='11031'>0.20726E+02</wgt>
<wgt id='11032'>0.21558E+02</wgt>
<wgt id='12000'>0.23255E+02</wgt>
<wgt id='12001'>0.23225E+02</wgt>
<wgt id='12002'>0.23285E+02</wgt>
<wgt id='12003'>0.23312E+02</wgt>
<wgt id='12004'>0.23199E+02</wgt>
<wgt id='12005'>0.23287E+02</wgt>
<wgt id='12006'>0.23224E+02</wgt>
<wgt id='12007'>0.23314E+02</wgt>
<wgt id='12008'>0.23198E+02</wgt>
<wgt id='12009'>0.23279E+02</wgt>
<wgt id='12010'>0.23233E+02</wgt>
<wgt id='12011'>0.23177E+02</wgt>
<wgt id='12012'>0.23335E+02</wgt>
<wgt id='12013'>0.23178E+02</wgt>
<wgt id='12014'>0.23334E+02</wgt>
<wgt id='12015'>0.23273E+02</wgt>
<wgt id='12016'>0.23231E+02</wgt>
<wgt id='12017'>0.23334E+02</wgt>
<wgt id='12018'>0.23170E+02</wgt>
<wgt id='12019'>0.23213E+02</wgt>
<wgt id='12020'>0.23296E+02</wgt>
<wgt id='12021'>0.23327E+02</wgt>
<wgt id='12022'>0.23161E+02</wgt>
<wgt id='12023'>0.23124E+02</wgt>
<wgt id='12024'>0.23283E+02</wgt>
<wgt id='12025'>0.23264E+02</wgt>
<wgt id='12026'>0.23278E+02</wgt>
<wgt id='12027'>0.23331E+02</wgt>
<wgt id='12028'>0.23202E+02</wgt>
<wgt id='12050'>0.23255E+02</wgt>
<wgt id='12051'>0.23259E+02</wgt>
<wgt id='12052'>0.23234E+02</wgt>
<wgt id='12053'>0.23255E+02</wgt>
<wgt id='12054'>0.23242E+02</wgt>
<wgt id='12055'>0.23332E+02</wgt>
<wgt id='12056'>0.23200E+02</wgt>
<wgt id='12057'>0.23187E+02</wgt>
<wgt id='12058'>0.23324E+02</wgt>
<wgt id='12059'>0.23235E+02</wgt>
<wgt id='12060'>0.23286E+02</wgt>
<wgt id='12061'>0.23224E+02</wgt>
<wgt id='12062'>0.23292E+02</wgt>
<wgt id='12063'>0.23085E+02</wgt>
<wgt id='13000'>0.21532E+02</wgt>
<wgt id='13001'>0.21515E+02</wgt>
<wgt id='13002'>0.21545E+02</wgt>
<wgt id='13003'>0.21563E+02</wgt>
<wgt id='13004'>0.21498E+02</wgt>
<wgt id='13005'>0.21578E+02</wgt>
<wgt id='13006'>0.21482E+02</wgt>
<wgt id='13007'>0.21616E+02</wgt>
<wgt id='13008'>0.21445E+02</wgt>
<wgt id='13009'>0.21511E+02</wgt>
<wgt id='13010'>0.21550E+02</wgt>
<wgt id='13011'>0.21588E+02</wgt>
<wgt id='13012'>0.21473E+02</wgt>
<wgt id='13013'>0.21477E+02</wgt>
<wgt id='13014'>0.21584E+02</wgt>
<wgt id='13015'>0.21517E+02</wgt>
<wgt id='13016'>0.21542E+02</wgt>
<wgt id='13017'>0.21518E+02</wgt>
<wgt id='13018'>0.21539E+02</wgt>
<wgt id='13019'>0.21503E+02</wgt>
<wgt id='13020'>0.21556E+02</wgt>
<wgt id='13021'>0.21423E+02</wgt>
<wgt id='13022'>0.21610E+02</wgt>
<wgt id='13023'>0.21493E+02</wgt>
<wgt id='13024'>0.21565E+02</wgt>
<wgt id='13025'>0.21409E+02</wgt>
<wgt id='13026'>0.21602E+02</wgt>
<wgt id='13027'>0.21504E+02</wgt>
<wgt id='13028'>0.21580E+02</wgt>
<wgt id='13050'>0.21532E+02</wgt>
<wgt id='13051'>0.21545E+02</wgt>
<wgt id='13052'>0.21457E+02</wgt>
<wgt id='13053'>0.21536E+02</wgt>
<wgt id='13054'>0.21519E+02</wgt>
<wgt id='13055'>0.21398E+02</wgt>
<wgt id='13056'>0.21546E+02</wgt>
<wgt id='13057'>0.21469E+02</wgt>
<wgt id='13058'>0.21633E+02</wgt>
<wgt id='13059'>0.21478E+02</wgt>
<wgt id='13060'>0.21420E+02</wgt>
<wgt id='13061'>0.21469E+02</wgt>
<wgt id='13062'>0.21694E+02</wgt>
<wgt id='13063'>0.21484E+02</wgt>
<wgt id='14000'>0.22075E+02</wgt>
<wgt id='14001'>0.22072E+02</wgt>
<wgt id='14002'>0.22069E+02</wgt>
<wgt id='14003'>0.22065E+02</wgt>
<wgt id='14004'>0.22062E+02</wgt>
<wgt id='14005'>0.22058E+02</wgt>
<wgt id='14006'>0.22055E+02</wgt>
<wgt id='14007'>0.22052E+02</wgt>
<wgt id='14008'>0.22049E+02</wgt>
<wgt id='14009'>0.22045E+02</wgt>
<wgt id='14010'>0.22042E+02</wgt>
<wgt id='14011'>0.22038E+02</wgt>
<wgt id='14012'>0.22035E+02</wgt>
<wgt id='14013'>0.22032E+02</wgt>
<wgt id='14014'>0.22028E+02</wgt>
<wgt id='14015'>0.22025E+02</wgt>
<wgt id='14016'>0.22021E+02</wgt>
<wgt id='14017'>0.22018E+02</wgt>
<wgt id='14018'>0.22015E+02</wgt>
<wgt id='14019'>0.22011E+02</wgt>
<wgt id='14020'>0.22008E+02</wgt>
<wgt id='14021'>0.22005E+02</wgt>
<wgt id='14022'>0.22001E+02</wgt>
<wgt id='14023'>0.21998E+02</wgt>
<wgt id='14024'>0.21995E+02</wgt>
<wgt id='14025'>0.21991E+02</wgt>
<wgt id='14026'>0.21988E+02</wgt>
<wgt id='14027'>0.21984E+02</wgt>
<wgt id='14028'>0.21981E+02</wgt>
<wgt id='14029'>0.21978E+02</wgt>
<wgt id='14030'>0.21974E+02</wgt>
<wgt id='15000'>0.20898E+02</wgt>
<wgt id='15001'>0.20907E+02</wgt>
<wgt id='15002'>0.20958E+02</wgt>
<wgt id='15003'>0.20794E+02</wgt>
<wgt id='15004'>0.20882E+02</wgt>
<wgt id='15005'>0.20931E+02</wgt>
<wgt id='15006'>0.20904E+02</wgt>
<wgt id='15007'>0.20961E+02</wgt>
<wgt id='15008'>0.20941E+02</wgt>
<wgt id='15009'>0.20881E+02</wgt>
<wgt id='15010'>0.20835E+02</wgt>
<wgt id='15011'>0.21081E+02</wgt>
<wgt id='15012'>0.20782E+02</wgt>
<wgt id='15013'>0.20685E+02</wgt>
<wgt id='15014'>0.20790E+02</wgt>
<wgt id='15015'>0.20891E+02</wgt>
<wgt id='15016'>0.21081E+02</wgt>
<wgt id='15017'>0.20835E+02</wgt>
<wgt id='15018'>0.20857E+02</wgt>
<wgt id='15019'>0.20877E+02</wgt>
<wgt id='15020'>0.21011E+02</wgt>
<wgt id='15021'>0.20877E+02</wgt>
<wgt id='15022'>0.20933E+02</wgt>
<wgt id='15023'>0.20833E+02</wgt>
<wgt id='15024'>0.20861E+02</wgt>
<wgt id='15025'>0.20918E+02</wgt>
<wgt id='15026'>0.20894E+02</wgt>
<wgt id='15027'>0.20876E+02</wgt>
<wgt id='15028'>0.20919E+02</wgt>
<wgt id='15029'>0.20925E+02</wgt>
<wgt id='15030'>0.20909E+02</wgt>
<wgt id='15031'>0.20887E+02</wgt>
<wgt id='15032'>0.20915E+02</wgt>
<wgt id='15033'>0.20923E+02</wgt>
<wgt id='15034'>0.20895E+02</wgt>
<wgt id='15035'>0.20932E+02</wgt>
<wgt id='15036'>0.20902E+02</wgt>
<wgt id='15037'>0.20916E+02</wgt>
<wgt id='15038'>0.20903E+02</wgt>
<wgt id='15039'>0.20900E+02</wgt>
<wgt id='15040'>0.20878E+02</wgt>
<wgt id='15041'>0.20890E+02</wgt>
<wgt id='15042'>0.20895E+02</wgt>
<wgt id='15043'>0.20880E+02</wgt>
<wgt id='15044'>0.20904E+02</wgt>
<wgt id='15045'>0.20896E+02</wgt>
<wgt id='15046'>0.20872E+02</wgt>
<wgt id='15047'>0.20893E+02</wgt>
<wgt id='15048'>0.20904E+02</wgt>
<wgt id='15049'>0.20886E+02</wgt>
<wgt id='15050'>0.20901E+02</wgt>
<wgt id='15051'>0.20909E+02</wgt>
<wgt id='15052'>0.20906E+02</wgt>
<wgt id='15053'>0.20901E+02</wgt>
<wgt id='15054'>0.20890E+02</wgt>
<wgt id='15055'>0.20892E+02</wgt>
<wgt id='15056'>0.20915E+02</wgt>
<wgt id='15057'>0.20898E+02</wgt>
<wgt id='15058'>0.20881E+02</wgt>
<wgt id='15059'>0.20889E+02</wgt>
<wgt id='15060'>0.20891E+02</wgt>
<wgt id='15061'>0.20900E+02</wgt>
<wgt id='15062'>0.20901E+02</wgt>
<wgt id='15063'>0.20907E+02</wgt>
<wgt id='15064'>0.20893E+02</wgt>
<wgt id='15065'>0.20897E+02</wgt>
<wgt id='15066'>0.20900E+02</wgt>
<wgt id='15067'>0.20905E+02</wgt>
<wgt id='15068'>0.20904E+02</wgt>
<wgt id='15069'>0.20911E+02</wgt>
<wgt id='15070'>0.20895E+02</wgt>
<wgt id='15071'>0.20911E+02</wgt>
<wgt id='15072'>0.20912E+02</wgt>
<wgt id='15073'>0.20892E+02</wgt>
<wgt id='15074'>0.20901E+02</wgt>
<wgt id='15075'>0.20897E+02</wgt>
<wgt id='15076'>0.20896E+02</wgt>
<wgt id='15077'>0.20902E+02</wgt>
<wgt id='15078'>0.20900E+02</wgt>
<wgt id='15079'>0.20895E+02</wgt>
<wgt id='15080'>0.20913E+02</wgt>
<wgt id='15081'>0.20896E+02</wgt>
<wgt id='15082'>0.20903E+02</wgt>
<wgt id='15083'>0.20891E+02</wgt>
<wgt id='15084'>0.20891E+02</wgt>
<wgt id='15085'>0.20892E+02</wgt>
<wgt id='15086'>0.20901E+02</wgt>
<wgt id='15087'>0.20884E+02</wgt>
<wgt id='15088'>0.20893E+02</wgt>
<wgt id='15089'>0.20893E+02</wgt>
<wgt id='15090'>0.20902E+02</wgt>
<wgt id='15091'>0.20895E+02</wgt>
<wgt id='15092'>0.20897E+02</wgt>
<wgt id='15093'>0.20894E+02</wgt>
<wgt id='15094'>0.20896E+02</wgt>
<wgt id='15095'>0.20900E+02</wgt>
<wgt id='15096'>0.20894E+02</wgt>
<wgt id='15097'>0.20899E+02</wgt>
<wgt id='15098'>0.20898E+02</wgt>
<wgt id='15099'>0.20893E+02</wgt>
<wgt id='15100'>0.20898E+02</wgt>
<wgt id='15101'>0.20898E+02</wgt>
<wgt id='15102'>0.20896E+02</wgt>
<wgt id='15103'>0.20898E+02</wgt>
<wgt id='15104'>0.20898E+02</wgt>
<wgt id='15105'>0.20899E+02</wgt>
<wgt id='15106'>0.20898E+02</wgt>
<wgt id='15107'>0.20897E+02</wgt>
<wgt id='1500'>0.22430E+02</wgt>
<wgt id='1501'>0.20970E+02</wgt>
<wgt id='1502'>0.22310E+02</wgt>
<wgt id='1503'>0.22579E+02</wgt>
<wgt id='1504'>0.22099E+02</wgt>
<wgt id='1505'>0.20492E+02</wgt>
<wgt id='1506'>0.22871E+02</wgt>
<wgt id='1507'>0.22526E+02</wgt>
<wgt id='1508'>0.22614E+02</wgt>
<wgt id='1509'>0.22659E+02</wgt>
<wgt id='1510'>0.21880E+02</wgt>
<wgt id='1511'>0.21871E+02</wgt>
<wgt id='1512'>0.22793E+02</wgt>
<wgt id='1513'>0.22814E+02</wgt>
<wgt id='1514'>0.22188E+02</wgt>
<wgt id='1515'>0.22874E+02</wgt>
<wgt id='1516'>0.22584E+02</wgt>
<wgt id='1517'>0.22330E+02</wgt>
<wgt id='1518'>0.22291E+02</wgt>
<wgt id='1519'>0.22738E+02</wgt>
<wgt id='1520'>0.22921E+02</wgt>
<wgt id='1521'>0.22686E+02</wgt>
<wgt id='1522'>0.22247E+02</wgt>
<wgt id='1523'>0.24018E+02</wgt>
<wgt id='1524'>0.22435E+02</wgt>
<wgt id='1525'>0.22482E+02</wgt>
<wgt id='1526'>0.22298E+02</wgt>
<wgt id='1527'>0.22157E+02</wgt>
<wgt id='1528'>0.22249E+02</wgt>
<wgt id='1529'>0.22498E+02</wgt>
<wgt id='1530'>0.22974E+02</wgt>
<wgt id='1531'>0.22388E+02</wgt>
<wgt id='1532'>0.21949E+02</wgt>
<wgt id='1533'>0.22222E+02</wgt>
<wgt id='1534'>0.22555E+02</wgt>
<wgt id='1535'>0.22944E+02</wgt>
<wgt id='1536'>0.22526E+02</wgt>
<wgt id='1537'>0.22836E+02</wgt>
<wgt id='1538'>0.22581E+02</wgt>
<wgt id='1539'>0.21932E+02</wgt>
<wgt id='1540'>0.22530E+02</wgt>
<wgt id='1541'>0.22492E+02</wgt>
<wgt id='1542'>0.22381E+02</wgt>
<wgt id='1543'>0.22514E+02</wgt>
<wgt id='1544'>0.22386E+02</wgt>
<wgt id='1545'>0.22375E+02</wgt>
<wgt id='1546'>0.22776E+02</wgt>
<wgt id='1547'>0.22148E+02</wgt>
<wgt id='1548'>0.22244E+02</wgt>
<wgt id='1549'>0.22175E+02</wgt>
<wgt id='1550'>0.22300E+02</wgt>
<wgt id='1551'>0.22372E+02</wgt>
<wgt id='1552'>0.22155E+02</wgt>
<wgt id='1553'>0.22720E+02</wgt>
<wgt id='1554'>0.22568E+02</wgt>
<wgt id='1555'>0.22177E+02</wgt>
<wgt id='1556'>0.22120E+02</wgt>
<wgt id='1557'>0.22748E+02</wgt>
<wgt id='1558'>0.22174E+02</wgt>
<wgt id='1559'>0.22817E+02</wgt>
<wgt id='1560'>0.22324E+02</wgt>
<wgt id='1561'>0.22361E+02</wgt>
<wgt id='1562'>0.22518E+02</wgt>
<wgt id='1563'>0.22533E+02</wgt>
<wgt id='1564'>0.22023E+02</wgt>
<wgt id='1565'>0.22520E+02</wgt>
<wgt id='1566'>0.22566E+02</wgt>
<wgt id='1567'>0.23876E+02</wgt>
<wgt id='1568'>0.22185E+02</wgt>
<wgt id='1569'>0.21828E+02</wgt>
<wgt id='1570'>0.22215E+02</wgt>
<wgt id='1571'>0.22427E+02</wgt>
<wgt id='1572'>0.22648E+02</wgt>
<wgt id='1573'>0.21244E+02</wgt>
<wgt id='1574'>0.22752E+02</wgt>
<wgt id='1575'>0.22218E+02</wgt>
<wgt id='1576'>0.22147E+02</wgt>
<wgt id='1577'>0.22648E+02</wgt>
<wgt id='1578'>0.23029E+02</wgt>
<wgt id='1579'>0.22193E+02</wgt>
<wgt id='1580'>0.22426E+02</wgt>
<wgt id='1581'>0.22592E+02</wgt>
<wgt id='1582'>0.22082E+02</wgt>
<wgt id='1583'>0.22869E+02</wgt>
<wgt id='1584'>0.22321E+02</wgt>
<wgt id='1585'>0.22026E+02</wgt>
<wgt id='1586'>0.22300E+02</wgt>
<wgt id='1587'>0.22483E+02</wgt>
<wgt id='1588'>0.22351E+02</wgt>
<wgt id='1589'>0.23108E+02</wgt>
<wgt id='1590'>0.22308E+02</wgt>
<wgt id='1591'>0.22193E+02</wgt>
<wgt id='1592'>0.22434E+02</wgt>
<wgt id='1593'>0.22352E+02</wgt>
<wgt id='1594'>0.22899E+02</wgt>
<wgt id='1595'>0.22108E+02</wgt>
<wgt id='1596'>0.22713E+02</wgt>
<wgt id='1597'>0.22330E+02</wgt>
<wgt id='1598'>0.22887E+02</wgt>
<wgt id='1599'>0.22737E+02</wgt>
<wgt id='1600'>0.22725E+02</wgt>
<wgt id='1601'>0.22035E+02</wgt>
<wgt id='1602'>0.22697E+02</wgt>
<wgt id='1700'>0.21403E+02</wgt>
<wgt id='1800'>0.25693E+02</wgt>
<wgt id='1850'>0.31969E+02</wgt>
<wgt id='1900'>0.26718E+02</wgt>
<wgt id='1950'>0.31683E+02</wgt>
</rwgt>
</event>
<event>
      4   9999  2.16956E+01  2.03059E+01 -1.00000E+00  1.62951E-01
      21    -1     0     0   512   501  0.000000000E+00  0.000000000E+00  4.579260725E+01  4.579260725E+01  0.000000000E+00  0.00000E+00  9.000E+00
      21    -1     0     0   501   502  0.000000000E+00  0.000000000E+00 -1.976649718E+02  1.976649718E+02  0.000000000E+00  0.00000E+00  9.000E+00
      25     1     1     2     0     0 -1.525608728E+01 -1.340075327E+01 -1.728402254E+02  2.142688899E+02  1.250003412E+02  0.00000E+00  9.000E+00
      21     1     1     2   512   502  1.525608728E+01  1.340075327E+01  2.096786081E+01  2.918868914E+01  4.129530925E-07  0.00000E+00  9.000E+00
#rwgt            1           1   16.407487958616937                1        6639           0
<rwgt>
<wgt id='1001'>0.21696E+02</wgt>
<wgt id='1002'>0.21741E+02</wgt>
<wgt id='1003'>0.21441E+02</wgt>
<wgt id='1004'>0.19924E+02</wgt>
<wgt id='1005'>0.20104E+02</wgt>
<wgt id='1006'>0.19522E+02</wgt>
<wgt id='1007'>0.23211E+02</wgt>
<wgt id='1008'>0.23008E+02</wgt>
<wgt id='1009'>0.23242E+02</wgt>
<wgt id='2000'>0.21696E+02</wgt>
<wgt id='2001'>0.21659E+02</wgt>
<wgt id='2002'>0.21769E+02</wgt>
<wgt id='2003'>0.21753E+02</wgt>
<wgt id='2004'>0.21706E+02</wgt>
<wgt id='2005'>0.21663E+02</wgt>
<wgt id='2006'>0.21657E+02</wgt>
<wgt id='2007'>0.21635E+02</wgt>
<wgt id='2008'>0.21692E+02</wgt>
<wgt id='2009'>0.21694E+02</wgt>
<wgt id='2010'>0.21675E+02</wgt>
<wgt id='2011'>0.21780E+02</wgt>
<wgt id='2012'>0.21785E+02</wgt>
<wgt id='2013'>0.21812E+02</wgt>
<wgt id='2014'>0.21765E+02</wgt>
<wgt id='2015'>0.21745E+02</wgt>
<wgt id='2016'>0.21688E+02</wgt>
<wgt id='2017'>0.21696E+02</wgt>
<wgt id='2018'>0.21756E+02</wgt>
<wgt id='2019'>0.21687E+02</wgt>
<wgt id='2020'>0.21785E+02</wgt>
<wgt id='2021'>0.21652E+02</wgt>
<wgt id='2022'>0.21780E+02</wgt>
<wgt id='2023'>0.21741E+02</wgt>
<wgt id='2024'>0.21703E+02</wgt>
<wgt id='2025'>0.21796E+02</wgt>
<wgt id='2026'>0.21753E+02</wgt>
<wgt id='2027'>0.21671E+02</wgt>
<wgt id='2028'>0.21657E+02</wgt>
<wgt id='2029'>0.21699E+02</wgt>
<wgt id='2030'>0.21704E+02</wgt>
<wgt id='2031'>0.21711E+02</wgt>
<wgt id='2032'>0.21692E+02</wgt>
<wgt id='2033'>0.21700E+02</wgt>
<wgt id='2034'>0.21691E+02</wgt>
<wgt id='2035'>0.21692E+02</wgt>
<wgt id='2036'>0.21699E+02</wgt>
<wgt id='2037'>0.21695E+02</wgt>
<wgt id='2038'>0.21702E+02</wgt>
<wgt id='2039'>0.21706E+02</wgt>
<wgt id='2040'>0.21698E+02</wgt>
<wgt id='2041'>0.21690E+02</wgt>
<wgt id='2042'>0.21676E+02</wgt>
<wgt id='2043'>0.21709E+02</wgt>
<wgt id='2044'>0.21704E+02</wgt>
<wgt id='2045'>0.21697E+02</wgt>
<wgt id='2046'>0.21703E+02</wgt>
<wgt id='2047'>0.21702E+02</wgt>
<wgt id='2048'>0.21698E+02</wgt>
<wgt id='2049'>0.21699E+02</wgt>
<wgt id='2050'>0.21701E+02</wgt>
<wgt id='2051'>0.21698E+02</wgt>
<wgt id='2052'>0.21687E+02</wgt>
<wgt id='2053'>0.21690E+02</wgt>
<wgt id='2054'>0.21694E+02</wgt>
<wgt id='2055'>0.21699E+02</wgt>
<wgt id='2056'>0.21697E+02</wgt>
<wgt id='2057'>0.21690E+02</wgt>
<wgt id='2058'>0.21701E+02</wgt>
<wgt id='2059'>0.21695E+02</wgt>
<wgt id='2060'>0.21698E+02</wgt>
<wgt id='2061'>0.21694E+02</wgt>
<wgt id='2062'>0.21694E+02</wgt>
<wgt id='2063'>0.21695E+02</wgt>
<wgt id='2064'>0.21691E+02</wgt>
<wgt id='2065'>0.21697E+02</wgt>
<wgt id='2066'>0.21692E+02</wgt>
<wgt id='2067'>0.21696E+02</wgt>
<wgt id='2068'>0.21698E+02</wgt>
<wgt id='2069'>0.21697E+02</wgt>
<wgt id='2070'>0.21696E+02</wgt>
<wgt id='2071'>0.21690E+02</wgt>
<wgt id='2072'>0.21698E+02</wgt>
<wgt id='2073'>0.21696E+02</wgt>
<wgt id='2074'>0.21692E+02</wgt>
<wgt id='2075'>0.21694E+02</wgt>
<wgt id='2076'>0.21696E+02</wgt>
<wgt id='2077'>0.21692E+02</wgt>
<wgt id='2078'>0.21695E+02</wgt>
<wgt id='2079'>0.21698E+02</wgt>
<wgt id='2080'>0.21695E+02</wgt>
<wgt id='2081'>0.21697E+02</wgt>
<wgt id='2082'>0.21697E+02</wgt>
<wgt id='2083'>0.21695E+02</wgt>
<wgt id='2084'>0.21694E+02</wgt>
<wgt id='2085'>0.21692E+02</wgt>
<wgt id='2086'>0.21696E+02</wgt>
<wgt id='2087'>0.21695E+02</wgt>
<wgt id='2088'>0.21695E+02</wgt>
<wgt id='2089'>0.21697E+02</wgt>
<wgt id='2090'>0.21697E+02</wgt>
<wgt id='2091'>0.21695E+02</wgt>
<wgt id='2092'>0.21696E+02</wgt>
<wgt id='2093'>0.21696E+02</wgt>
<wgt id='2094'>0.21695E+02</wgt>
<wgt id='2095'>0.21695E+02</wgt>
<wgt id='2096'>0.21695E+02</wgt>
<wgt id='2097'>0.21697E+02</wgt>
<wgt id='2098'>0.21695E+02</wgt>
<wgt id='2099'>0.21697E+02</wgt>
<wgt id='2100'>0.21695E+02</wgt>
<wgt id='2101'>0.21252E+02</wgt>
<wgt id='2102'>0.22068E+02</wgt>
<wgt id='2104'>0.19688E+02</wgt>
<wgt id='2105'>0.20042E+02</wgt>
<wgt id='2106'>0.20476E+02</wgt>
<wgt id='2107'>0.20915E+02</wgt>
<wgt id='2108'>0.21518E+02</wgt>
<wgt id='2109'>0.21938E+02</wgt>
<wgt id='2110'>0.22404E+02</wgt>
<wgt id='2111'>0.22792E+02</wgt>
<wgt id='3000'>0.22600E+02</wgt>
<wgt id='3001'>0.22667E+02</wgt>
<wgt id='3002'>0.22525E+02</wgt>
<wgt id='3003'>0.22667E+02</wgt>
<wgt id='3004'>0.22634E+02</wgt>
<wgt id='3005'>0.22679E+02</wgt>
<wgt id='3006'>0.22624E+02</wgt>
<wgt id='3007'>0.22622E+02</wgt>
<wgt id='3008'>0.22552E+02</wgt>
<wgt id='3009'>0.22543E+02</wgt>
<wgt id='3010'>0.22535E+02</wgt>
<wgt id='3011'>0.22644E+02</wgt>
<wgt id='3012'>0.22726E+02</wgt>
<wgt id='3013'>0.22480E+02</wgt>
<wgt id='3014'>0.22661E+02</wgt>
<wgt id='3015'>0.22631E+02</wgt>
<wgt id='3016'>0.22617E+02</wgt>
<wgt id='3017'>0.22667E+02</wgt>
<wgt id='3018'>0.22650E+02</wgt>
<wgt id='3019'>0.22523E+02</wgt>
<wgt id='3020'>0.22529E+02</wgt>
<wgt id='3021'>0.22508E+02</wgt>
<wgt id='3022'>0.22594E+02</wgt>
<wgt id='3023'>0.22541E+02</wgt>
<wgt id='3024'>0.22528E+02</wgt>
<wgt id='3025'>0.22593E+02</wgt>
<wgt id='3026'>0.22657E+02</wgt>
<wgt id='3027'>0.22605E+02</wgt>
<wgt id='3028'>0.22520E+02</wgt>
<wgt id='3029'>0.22595E+02</wgt>
<wgt id='3030'>0.22605E+02</wgt>
<wgt id='3031'>0.22602E+02</wgt>
<wgt id='3032'>0.22623E+02</wgt>
<wgt id='3033'>0.22611E+02</wgt>
<wgt id='3034'>0.22619E+02</wgt>
<wgt id='3035'>0.22594E+02</wgt>
<wgt id='3036'>0.22600E+02</wgt>
<wgt id='3037'>0.22605E+02</wgt>
<wgt id='3038'>0.22600E+02</wgt>
<wgt id='3039'>0.22600E+02</wgt>
<wgt id='3040'>0.22609E+02</wgt>
<wgt id='3041'>0.22599E+02</wgt>
<wgt id='3042'>0.22584E+02</wgt>
<wgt id='3043'>0.22586E+02</wgt>
<wgt id='3044'>0.22609E+02</wgt>
<wgt id='3045'>0.22610E+02</wgt>
<wgt id='3046'>0.22600E+02</wgt>
<wgt id='3047'>0.22594E+02</wgt>
<wgt id='3048'>0.22610E+02</wgt>
<wgt id='3049'>0.22595E+02</wgt>
<wgt id='3050'>0.22603E+02</wgt>
<wgt id='3051'>0.22615E+02</wgt>
<wgt id='3052'>0.22599E+02</wgt>
<wgt id='3053'>0.22596E+02</wgt>
<wgt id='3054'>0.22596E+02</wgt>
<wgt id='3055'>0.22610E+02</wgt>
<wgt id='3056'>0.22603E+02</wgt>
<wgt id='3057'>0.22594E+02</wgt>
<wgt id='3058'>0.22597E+02</wgt>
<wgt id='3059'>0.22600E+02</wgt>
<wgt id='3060'>0.22601E+02</wgt>
<wgt id='3061'>0.22605E+02</wgt>
<wgt id='3062'>0.22602E+02</wgt>
<wgt id='3063'>0.22603E+02</wgt>
<wgt id='3064'>0.22600E+02</wgt>
<wgt id='3065'>0.22602E+02</wgt>
<wgt id='3066'>0.22602E+02</wgt>
<wgt id='3067'>0.22597E+02</wgt>
<wgt id='3068'>0.22598E+02</wgt>
<wgt id='3069'>0.22594E+02</wgt>
<wgt id='3070'>0.22595E+02</wgt>
<wgt id='3071'>0.22601E+02</wgt>
<wgt id='3072'>0.22605E+02</wgt>
<wgt id='3073'>0.22599E+02</wgt>
<wgt id='3074'>0.22604E+02</wgt>
<wgt id='3075'>0.22603E+02</wgt>
<wgt id='3076'>0.22599E+02</wgt>
<wgt id='3077'>0.22598E+02</wgt>
<wgt id='3078'>0.22603E+02</wgt>
<wgt id='3079'>0.22597E+02</wgt>
<wgt id='3080'>0.22598E+02</wgt>
<wgt id='3081'>0.22597E+02</wgt>
<wgt id='3082'>0.22598E+02</wgt>
<wgt id='3083'>0.22600E+02</wgt>
<wgt id='3084'>0.22598E+02</wgt>
<wgt id='3085'>0.22601E+02</wgt>
<wgt id='3086'>0.22601E+02</wgt>
<wgt id='3087'>0.22599E+02</wgt>
<wgt id='3088'>0.22599E+02</wgt>
<wgt id='3089'>0.22601E+02</wgt>
<wgt id='3090'>0.22601E+02</wgt>
<wgt id='3091'>0.22599E+02</wgt>
<wgt id='3092'>0.22599E+02</wgt>
<wgt id='3093'>0.22601E+02</wgt>
<wgt id='3094'>0.22601E+02</wgt>
<wgt id='3095'>0.22600E+02</wgt>
<wgt id='3096'>0.22597E+02</wgt>
<wgt id='3097'>0.22598E+02</wgt>
<wgt id='3098'>0.22598E+02</wgt>
<wgt id='3099'>0.22600E+02</wgt>
<wgt id='3100'>0.22601E+02</wgt>
<wgt id='3101'>0.22150E+02</wgt>
<wgt id='3102'>0.23127E+02</wgt>
<wgt id='5000'>0.20921E+02</wgt>
<wgt id='5001'>0.20857E+02</wgt>
<wgt id='5002'>0.20881E+02</wgt>
<wgt id='5003'>0.20813E+02</wgt>
<wgt id='5004'>0.20937E+02</wgt>
<wgt id='5005'>0.20517E+02</wgt>
<wgt id='5006'>0.21120E+02</wgt>
<wgt id='5007'>0.20972E+02</wgt>
<wgt id='5008'>0.20724E+02</wgt>
<wgt id='5009'>0.21141E+02</wgt>
<wgt id='5010'>0.20799E+02</wgt>
<wgt id='5011'>0.20890E+02</wgt>
<wgt id='5012'>0.20907E+02</wgt>
<wgt id='5013'>0.20485E+02</wgt>
<wgt id='5014'>0.20991E+02</wgt>
<wgt id='5015'>0.21077E+02</wgt>
<wgt id='5016'>0.20446E+02</wgt>
<wgt id='5017'>0.20933E+02</wgt>
<wgt id='5018'>0.20909E+02</wgt>
<wgt id='5019'>0.20870E+02</wgt>
<wgt id='5020'>0.20968E+02</wgt>
<wgt id='5021'>0.20990E+02</wgt>
<wgt id='5022'>0.20877E+02</wgt>
<wgt id='5023'>0.20855E+02</wgt>
<wgt id='5024'>0.20987E+02</wgt>
<wgt id='5025'>0.20899E+02</wgt>
<wgt id='5026'>0.20939E+02</wgt>
<wgt id='5027'>0.21142E+02</wgt>
<wgt id='5028'>0.20549E+02</wgt>
<wgt id='5029'>0.20512E+02</wgt>
<wgt id='5030'>0.21168E+02</wgt>
<wgt id='5031'>0.20681E+02</wgt>
<wgt id='5032'>0.21269E+02</wgt>
<wgt id='5033'>0.20775E+02</wgt>
<wgt id='5034'>0.21044E+02</wgt>
<wgt id='5035'>0.20627E+02</wgt>
<wgt id='5036'>0.21162E+02</wgt>
<wgt id='5037'>0.20840E+02</wgt>
<wgt id='5038'>0.21001E+02</wgt>
<wgt id='5039'>0.21298E+02</wgt>
<wgt id='5040'>0.20729E+02</wgt>
<wgt id='5041'>0.20729E+02</wgt>
<wgt id='5042'>0.20940E+02</wgt>
<wgt id='5043'>0.21084E+02</wgt>
<wgt id='5044'>0.20397E+02</wgt>
<wgt id='5045'>0.21544E+02</wgt>
<wgt id='5046'>0.20733E+02</wgt>
<wgt id='5047'>0.21084E+02</wgt>
<wgt id='5048'>0.21016E+02</wgt>
<wgt id='5049'>0.20936E+02</wgt>
<wgt id='5050'>0.20954E+02</wgt>
<wgt id='5051'>0.20967E+02</wgt>
<wgt id='5052'>0.20909E+02</wgt>
<wgt id='5053'>0.20731E+02</wgt>
<wgt id='5054'>0.21228E+02</wgt>
<wgt id='5055'>0.20785E+02</wgt>
<wgt id='5056'>0.21090E+02</wgt>
<wgt id='5060'>0.20494E+02</wgt>
<wgt id='5070'>0.21289E+02</wgt>
<wgt id='4000'>0.21968E+02</wgt>
<wgt id='4001'>0.21987E+02</wgt>
<wgt id='4002'>0.22024E+02</wgt>
<wgt id='4003'>0.22353E+02</wgt>
<wgt id='4004'>0.21790E+02</wgt>
<wgt id='4005'>0.22029E+02</wgt>
<wgt id='4006'>0.21914E+02</wgt>
<wgt id='4007'>0.22202E+02</wgt>
<wgt id='4008'>0.21876E+02</wgt>
<wgt id='4009'>0.21546E+02</wgt>
<wgt id='4010'>0.22219E+02</wgt>
<wgt id='4011'>0.22314E+02</wgt>
<wgt id='4012'>0.21767E+02</wgt>
<wgt id='4013'>0.21173E+02</wgt>
<wgt id='4014'>0.22422E+02</wgt>
<wgt id='4015'>0.22203E+02</wgt>
<wgt id='4016'>0.21815E+02</wgt>
<wgt id='4017'>0.21724E+02</wgt>
<wgt id='4018'>0.22258E+02</wgt>
<wgt id='4019'>0.22252E+02</wgt>
<wgt id='4020'>0.21652E+02</wgt>
<wgt id='4021'>0.22021E+02</wgt>
<wgt id='4022'>0.21852E+02</wgt>
<wgt id='4023'>0.21860E+02</wgt>
<wgt id='4024'>0.22063E+02</wgt>
<wgt id='4025'>0.21711E+02</wgt>
<wgt id='4026'>0.22202E+02</wgt>
<wgt id='4027'>0.21895E+02</wgt>
<wgt id='4028'>0.22066E+02</wgt>
<wgt id='4029'>0.21801E+02</wgt>
<wgt id='4030'>0.22026E+02</wgt>
<wgt id='4031'>0.22006E+02</wgt>
<wgt id='4032'>0.21918E+02</wgt>
<wgt id='4033'>0.21940E+02</wgt>
<wgt id='4034'>0.22028E+02</wgt>
<wgt id='4035'>0.22272E+02</wgt>
<wgt id='4036'>0.21676E+02</wgt>
<wgt id='4037'>0.22141E+02</wgt>
<wgt id='4038'>0.21679E+02</wgt>
<wgt id='4039'>0.21954E+02</wgt>
<wgt id='4040'>0.21944E+02</wgt>
<wgt id='4041'>0.22141E+02</wgt>
<wgt id='4042'>0.21808E+02</wgt>
<wgt id='4043'>0.22168E+02</wgt>
<wgt id='4044'>0.21784E+02</wgt>
<wgt id='4045'>0.21642E+02</wgt>
<wgt id='4046'>0.21912E+02</wgt>
<wgt id='4047'>0.21745E+02</wgt>
<wgt id='4048'>0.22069E+02</wgt>
<wgt id='4049'>0.21942E+02</wgt>
<wgt id='4050'>0.21644E+02</wgt>
<wgt id='4051'>0.21922E+02</wgt>
<wgt id='4052'>0.21928E+02</wgt>
<wgt id='4053'>0.21386E+02</wgt>
<wgt id='4054'>0.22077E+02</wgt>
<wgt id='4055'>0.21804E+02</wgt>
<wgt id='4056'>0.22163E+02</wgt>
<wgt id='4060'>0.21449E+02</wgt>
<wgt id='4070'>0.22443E+02</wgt>
<wgt id='4080'>0.21907E+02</wgt>
<wgt id='6000'>0.22397E+02</wgt>
<wgt id='6001'>0.22413E+02</wgt>
<wgt id='6002'>0.22378E+02</wgt>
<wgt id='6003'>0.22408E+02</wgt>
<wgt id='6004'>0.22389E+02</wgt>
<wgt id='6005'>0.22450E+02</wgt>
<wgt id='6006'>0.22346E+02</wgt>
<wgt id='6007'>0.22304E+02</wgt>
<wgt id='6008'>0.22501E+02</wgt>
<wgt id='6009'>0.22479E+02</wgt>
<wgt id='6010'>0.22316E+02</wgt>
<wgt id='6011'>0.22447E+02</wgt>
<wgt id='6012'>0.22287E+02</wgt>
<wgt id='6013'>0.22371E+02</wgt>
<wgt id='6014'>0.22443E+02</wgt>
<wgt id='6015'>0.22327E+02</wgt>
<wgt id='6016'>0.22436E+02</wgt>
<wgt id='6017'>0.22261E+02</wgt>
<wgt id='6018'>0.22557E+02</wgt>
<wgt id='6019'>0.22422E+02</wgt>
<wgt id='6020'>0.22373E+02</wgt>
<wgt id='6021'>0.22345E+02</wgt>
<wgt id='6022'>0.22466E+02</wgt>
<wgt id='6023'>0.22232E+02</wgt>
<wgt id='6024'>0.22512E+02</wgt>
<wgt id='6025'>0.22198E+02</wgt>
<wgt id='6026'>0.22543E+02</wgt>
<wgt id='6027'>0.22460E+02</wgt>
<wgt id='6028'>0.22397E+02</wgt>
<wgt id='6029'>0.22517E+02</wgt>
<wgt id='6030'>0.22257E+02</wgt>
<wgt id='6031'>0.22409E+02</wgt>
<wgt id='6032'>0.22374E+02</wgt>
<wgt id='6033'>0.22443E+02</wgt>
<wgt id='6034'>0.22349E+02</wgt>
<wgt id='6035'>0.22388E+02</wgt>
<wgt id='6036'>0.22459E+02</wgt>
<wgt id='6037'>0.22438E+02</wgt>
<wgt id='6038'>0.22393E+02</wgt>
<wgt id='6039'>0.22371E+02</wgt>
<wgt id='6040'>0.22424E+02</wgt>
<wgt id='6041'>0.22350E+02</wgt>
<wgt id='6042'>0.22455E+02</wgt>
<wgt id='6043'>0.22703E+02</wgt>
<wgt id='6044'>0.22258E+02</wgt>
<wgt id='6045'>0.22378E+02</wgt>
<wgt id='6046'>0.22445E+02</wgt>
<wgt id='6047'>0.22430E+02</wgt>
<wgt id='6048'>0.22184E+02</wgt>
<wgt id='6049'>0.22416E+02</wgt>
<wgt id='6050'>0.22375E+02</wgt>
<wgt id='7000'>0.21098E+02</wgt>
<wgt id='7001'>0.21099E+02</wgt>
<wgt id='7002'>0.21098E+02</wgt>
<wgt id='7003'>0.21164E+02</wgt>
<wgt id='7004'>0.21032E+02</wgt>
<wgt id='7005'>0.21139E+02</wgt>
<wgt id='7006'>0.21082E+02</wgt>
<wgt id='7007'>0.21012E+02</wgt>
<wgt id='7008'>0.21183E+02</wgt>
<wgt id='7009'>0.21138E+02</wgt>
<wgt id='7010'>0.21059E+02</wgt>
<wgt id='7011'>0.20883E+02</wgt>
<wgt id='7012'>0.21190E+02</wgt>
<wgt id='7013'>0.21097E+02</wgt>
<wgt id='7014'>0.21097E+02</wgt>
<wgt id='7015'>0.21034E+02</wgt>
<wgt id='7016'>0.21166E+02</wgt>
<wgt id='7017'>0.21014E+02</wgt>
<wgt id='7018'>0.21142E+02</wgt>
<wgt id='7019'>0.21071E+02</wgt>
<wgt id='7020'>0.21133E+02</wgt>
<wgt id='7021'>0.21090E+02</wgt>
<wgt id='7022'>0.21102E+02</wgt>
<wgt id='7023'>0.21308E+02</wgt>
<wgt id='7024'>0.20889E+02</wgt>
<wgt id='7025'>0.21184E+02</wgt>
<wgt id='7026'>0.20887E+02</wgt>
<wgt id='7027'>0.21189E+02</wgt>
<wgt id='7028'>0.21061E+02</wgt>
<wgt id='7029'>0.21015E+02</wgt>
<wgt id='7030'>0.21306E+02</wgt>
<wgt id='7031'>0.21090E+02</wgt>
<wgt id='7032'>0.21117E+02</wgt>
<wgt id='7033'>0.21075E+02</wgt>
<wgt id='7034'>0.21155E+02</wgt>
<wgt id='7035'>0.21139E+02</wgt>
<wgt id='7036'>0.21090E+02</wgt>
<wgt id='7037'>0.21106E+02</wgt>
<wgt id='7038'>0.21104E+02</wgt>
<wgt id='7039'>0.21070E+02</wgt>
<wgt id='7040'>0.21117E+02</wgt>
<wgt id='7041'>0.21057E+02</wgt>
<wgt id='7042'>0.21130E+02</wgt>
<wgt id='7043'>0.21117E+02</wgt>
<wgt id='7044'>0.20992E+02</wgt>
<wgt id='7045'>0.20910E+02</wgt>
<wgt id='7046'>0.21170E+02</wgt>
<wgt id='7047'>0.21130E+02</wgt>
<wgt id='7048'>0.21077E+02</wgt>
<wgt id='7049'>0.21063E+02</wgt>
<wgt id='7050'>0.21078E+02</wgt>
<wgt id='7060'>0.31799E+02</wgt>
<wgt id='8000'>0.21339E+02</wgt>
<wgt id='8001'>0.21334E+02</wgt>
<wgt id='8002'>0.21346E+02</wgt>
<wgt id='8003'>0.21341E+02</wgt>
<wgt id='8004'>0.21338E+02</wgt>
<wgt id='8005'>0.21284E+02</wgt>
<wgt id='8006'>0.21327E+02</wgt>
<wgt id='8007'>0.21313E+02</wgt>
<wgt id='8008'>0.21379E+02</wgt>
<wgt id='8009'>0.21423E+02</wgt>
<wgt id='8010'>0.21339E+02</wgt>
<wgt id='8011'>0.21328E+02</wgt>
<wgt id='8012'>0.21312E+02</wgt>
<wgt id='8013'>0.21334E+02</wgt>
<wgt id='8014'>0.21331E+02</wgt>
<wgt id='8015'>0.21322E+02</wgt>
<wgt id='8016'>0.21347E+02</wgt>
<wgt id='8017'>0.21347E+02</wgt>
<wgt id='8018'>0.21340E+02</wgt>
<wgt id='8019'>0.21376E+02</wgt>
<wgt id='8020'>0.21270E+02</wgt>
<wgt id='8021'>0.21341E+02</wgt>
<wgt id='8022'>0.21214E+02</wgt>
<wgt id='8023'>0.21360E+02</wgt>
<wgt id='8024'>0.21379E+02</wgt>
<wgt id='8025'>0.21410E+02</wgt>
<wgt id='8026'>0.21383E+02</wgt>
<wgt id='8027'>0.21304E+02</wgt>
<wgt id='8028'>0.21361E+02</wgt>
<wgt id='8029'>0.21177E+02</wgt>
<wgt id='8500'>0.22146E+02</wgt>
<wgt id='8501'>0.22084E+02</wgt>
<wgt id='8502'>0.22317E+02</wgt>
<wgt id='8503'>0.22276E+02</wgt>
<wgt id='8504'>0.22100E+02</wgt>
<wgt id='8505'>0.22079E+02</wgt>
<wgt id='8506'>0.22106E+02</wgt>
<wgt id='8507'>0.22244E+02</wgt>
<wgt id='8508'>0.22357E+02</wgt>
<wgt id='8509'>0.22071E+02</wgt>
<wgt id='8510'>0.22475E+02</wgt>
<wgt id='8511'>0.22162E+02</wgt>
<wgt id='8512'>0.21912E+02</wgt>
<wgt id='8513'>0.22178E+02</wgt>
<wgt id='8514'>0.21966E+02</wgt>
<wgt id='8515'>0.22186E+02</wgt>
<wgt id='8516'>0.22192E+02</wgt>
<wgt id='8517'>0.22058E+02</wgt>
<wgt id='8518'>0.22093E+02</wgt>
<wgt id='8519'>0.22111E+02</wgt>
<wgt id='8520'>0.22153E+02</wgt>
<wgt id='8521'>0.22027E+02</wgt>
<wgt id='8522'>0.22162E+02</wgt>
<wgt id='8523'>0.22095E+02</wgt>
<wgt id='8524'>0.22124E+02</wgt>
<wgt id='8525'>0.22115E+02</wgt>
<wgt id='8526'>0.22123E+02</wgt>
<wgt id='8527'>0.22157E+02</wgt>
<wgt id='8528'>0.22086E+02</wgt>
<wgt id='8529'>0.22124E+02</wgt>
<wgt id='8530'>0.22136E+02</wgt>
<wgt id='8531'>0.22138E+02</wgt>
<wgt id='8532'>0.22147E+02</wgt>
<wgt id='8533'>0.22103E+02</wgt>
<wgt id='8534'>0.22153E+02</wgt>
<wgt id='8535'>0.22197E+02</wgt>
<wgt id='8536'>0.22130E+02</wgt>
<wgt id='8537'>0.22155E+02</wgt>
<wgt id='8538'>0.22127E+02</wgt>
<wgt id='8539'>0.22150E+02</wgt>
<wgt id='8540'>0.22148E+02</wgt>
<wgt id='8541'>0.22157E+02</wgt>
<wgt id='8542'>0.22162E+02</wgt>
<wgt id='8543'>0.22126E+02</wgt>
<wgt id='8544'>0.22167E+02</wgt>
<wgt id='8545'>0.22163E+02</wgt>
<wgt id='8546'>0.22170E+02</wgt>
<wgt id='8547'>0.22128E+02</wgt>
<wgt id='8548'>0.22125E+02</wgt>
<wgt id='8549'>0.22147E+02</wgt>
<wgt id='8550'>0.22150E+02</wgt>
<wgt id='8551'>0.22126E+02</wgt>
<wgt id='8552'>0.22150E+02</wgt>
<wgt id='8553'>0.22137E+02</wgt>
<wgt id='8554'>0.22138E+02</wgt>
<wgt id='8555'>0.22148E+02</wgt>
<wgt id='8556'>0.22145E+02</wgt>
<wgt id='8557'>0.22141E+02</wgt>
<wgt id='8558'>0.22170E+02</wgt>
<wgt id='8559'>0.22135E+02</wgt>
<wgt id='8560'>0.22123E+02</wgt>
<wgt id='8561'>0.22143E+02</wgt>
<wgt id='8562'>0.22129E+02</wgt>
<wgt id='8563'>0.22148E+02</wgt>
<wgt id='8564'>0.22142E+02</wgt>
<wgt id='8565'>0.22145E+02</wgt>
<wgt id='8566'>0.22141E+02</wgt>
<wgt id='8567'>0.22144E+02</wgt>
<wgt id='8568'>0.22154E+02</wgt>
<wgt id='8569'>0.22152E+02</wgt>
<wgt id='8570'>0.22145E+02</wgt>
<wgt id='8571'>0.22137E+02</wgt>
<wgt id='8572'>0.22139E+02</wgt>
<wgt id='8573'>0.22137E+02</wgt>
<wgt id='8574'>0.22152E+02</wgt>
<wgt id='8575'>0.22144E+02</wgt>
<wgt id='8576'>0.22143E+02</wgt>
<wgt id='8577'>0.22145E+02</wgt>
<wgt id='8578'>0.22149E+02</wgt>
<wgt id='8579'>0.22159E+02</wgt>
<wgt id='8580'>0.22146E+02</wgt>
<wgt id='8581'>0.22151E+02</wgt>
<wgt id='8582'>0.22131E+02</wgt>
<wgt id='8583'>0.22156E+02</wgt>
<wgt id='8584'>0.22151E+02</wgt>
<wgt id='8585'>0.22151E+02</wgt>
<wgt id='8586'>0.22155E+02</wgt>
<wgt id='8587'>0.22143E+02</wgt>
<wgt id='8588'>0.22141E+02</wgt>
<wgt id='8589'>0.22146E+02</wgt>
<wgt id='8590'>0.22144E+02</wgt>
<wgt id='8591'>0.22144E+02</wgt>
<wgt id='8592'>0.22146E+02</wgt>
<wgt id='8593'>0.22138E+02</wgt>
<wgt id='8594'>0.22150E+02</wgt>
<wgt id='8595'>0.22149E+02</wgt>
<wgt id='8596'>0.22141E+02</wgt>
<wgt id='8597'>0.22149E+02</wgt>
<wgt id='8598'>0.22152E+02</wgt>
<wgt id='8599'>0.22149E+02</wgt>
<wgt id='8600'>0.22146E+02</wgt>
<wgt id='8601'>0.21795E+02</wgt>
<wgt id='8602'>0.22443E+02</wgt>
<wgt id='9000'>0.21092E+02</wgt>
<wgt id='9001'>0.21107E+02</wgt>
<wgt id='9002'>0.21191E+02</wgt>
<wgt id='9003'>0.20931E+02</wgt>
<wgt id='9004'>0.21056E+02</wgt>
<wgt id='9005'>0.21162E+02</wgt>
<wgt id='9006'>0.21053E+02</wgt>
<wgt id='9007'>0.21127E+02</wgt>
<wgt id='9008'>0.21135E+02</wgt>
<wgt id='9009'>0.21073E+02</wgt>
<wgt id='9010'>0.21028E+02</wgt>
<wgt id='9011'>0.21324E+02</wgt>
<wgt id='9012'>0.20897E+02</wgt>
<wgt id='9013'>0.20800E+02</wgt>
<wgt id='9014'>0.20906E+02</wgt>
<wgt id='9015'>0.21096E+02</wgt>
<wgt id='9016'>0.21274E+02</wgt>
<wgt id='9017'>0.21067E+02</wgt>
<wgt id='9018'>0.21044E+02</wgt>
<wgt id='9019'>0.21050E+02</wgt>
<wgt id='9020'>0.21181E+02</wgt>
<wgt id='9021'>0.21053E+02</wgt>
<wgt id='9022'>0.21125E+02</wgt>
<wgt id='9023'>0.21048E+02</wgt>
<wgt id='9024'>0.21071E+02</wgt>
<wgt id='9025'>0.21110E+02</wgt>
<wgt id='9026'>0.21090E+02</wgt>
<wgt id='9027'>0.21051E+02</wgt>
<wgt id='9028'>0.21110E+02</wgt>
<wgt id='9029'>0.21121E+02</wgt>
<wgt id='9030'>0.21095E+02</wgt>
<wgt id='9031'>0.21081E+02</wgt>
<wgt id='9032'>0.21113E+02</wgt>
<wgt id='9033'>0.21119E+02</wgt>
<wgt id='9034'>0.21083E+02</wgt>
<wgt id='9035'>0.21127E+02</wgt>
<wgt id='9036'>0.21091E+02</wgt>
<wgt id='9037'>0.21111E+02</wgt>
<wgt id='9038'>0.21095E+02</wgt>
<wgt id='9039'>0.21095E+02</wgt>
<wgt id='9040'>0.21069E+02</wgt>
<wgt id='9041'>0.21083E+02</wgt>
<wgt id='9042'>0.21087E+02</wgt>
<wgt id='9043'>0.21074E+02</wgt>
<wgt id='9044'>0.21099E+02</wgt>
<wgt id='9045'>0.21089E+02</wgt>
<wgt id='9046'>0.21063E+02</wgt>
<wgt id='9047'>0.21083E+02</wgt>
<wgt id='9048'>0.21098E+02</wgt>
<wgt id='9049'>0.21081E+02</wgt>
<wgt id='9050'>0.21096E+02</wgt>
<wgt id='9051'>0.21100E+02</wgt>
<wgt id='9052'>0.21098E+02</wgt>
<wgt id='9053'>0.21096E+02</wgt>
<wgt id='9054'>0.21082E+02</wgt>
<wgt id='9055'>0.21088E+02</wgt>
<wgt id='9056'>0.21111E+02</wgt>
<wgt id='9057'>0.21090E+02</wgt>
<wgt id='9058'>0.21076E+02</wgt>
<wgt id='9059'>0.21083E+02</wgt>
<wgt id='9060'>0.21085E+02</wgt>
<wgt id='9061'>0.21094E+02</wgt>
<wgt id='9062'>0.21096E+02</wgt>
<wgt id='9063'>0.21101E+02</wgt>
<wgt id='9064'>0.21087E+02</wgt>
<wgt id='9065'>0.21091E+02</wgt>
<wgt id='9066'>0.21093E+02</wgt>
<wgt id='9067'>0.21099E+02</wgt>
<wgt id='9068'>0.21098E+02</wgt>
<wgt id='9069'>0.21104E+02</wgt>
<wgt id='9070'>0.21090E+02</wgt>
<wgt id='9071'>0.21104E+02</wgt>
<wgt id='9072'>0.21105E+02</wgt>
<wgt id='9073'>0.21087E+02</wgt>
<wgt id='9074'>0.21095E+02</wgt>
<wgt id='9075'>0.21091E+02</wgt>
<wgt id='9076'>0.21090E+02</wgt>
<wgt id='9077'>0.21095E+02</wgt>
<wgt id='9078'>0.21094E+02</wgt>
<wgt id='9079'>0.21089E+02</wgt>
<wgt id='9080'>0.21105E+02</wgt>
<wgt id='9081'>0.21090E+02</wgt>
<wgt id='9082'>0.21097E+02</wgt>
<wgt id='9083'>0.21086E+02</wgt>
<wgt id='9084'>0.21087E+02</wgt>
<wgt id='9085'>0.21086E+02</wgt>
<wgt id='9086'>0.21094E+02</wgt>
<wgt id='9087'>0.21079E+02</wgt>
<wgt id='9088'>0.21087E+02</wgt>
<wgt id='9089'>0.21087E+02</wgt>
<wgt id='9090'>0.21095E+02</wgt>
<wgt id='9091'>0.21091E+02</wgt>
<wgt id='9092'>0.21092E+02</wgt>
<wgt id='9093'>0.21089E+02</wgt>
<wgt id='9094'>0.21091E+02</wgt>
<wgt id='9095'>0.21095E+02</wgt>
<wgt id='9096'>0.21088E+02</wgt>
<wgt id='9097'>0.21093E+02</wgt>
<wgt id='9098'>0.21092E+02</wgt>
<wgt id='9099'>0.21087E+02</wgt>
<wgt id='9100'>0.21092E+02</wgt>
<wgt id='9101'>0.20841E+02</wgt>
<wgt id='9102'>0.21300E+02</wgt>
<wgt id='10000'>0.22147E+02</wgt>
<wgt id='10001'>0.22243E+02</wgt>
<wgt id='10002'>0.22096E+02</wgt>
<wgt id='10003'>0.22144E+02</wgt>
<wgt id='10004'>0.22135E+02</wgt>
<wgt id='10005'>0.22700E+02</wgt>
<wgt id='10006'>0.22125E+02</wgt>
<wgt id='10007'>0.22137E+02</wgt>
<wgt id='10008'>0.22171E+02</wgt>
<wgt id='10009'>0.22106E+02</wgt>
<wgt id='10010'>0.22165E+02</wgt>
<wgt id='10011'>0.22124E+02</wgt>
<wgt id='10012'>0.22116E+02</wgt>
<wgt id='10013'>0.22144E+02</wgt>
<wgt id='10014'>0.22143E+02</wgt>
<wgt id='10015'>0.22170E+02</wgt>
<wgt id='10016'>0.22137E+02</wgt>
<wgt id='10017'>0.22020E+02</wgt>
<wgt id='10018'>0.22168E+02</wgt>
<wgt id='10019'>0.22130E+02</wgt>
<wgt id='10020'>0.22139E+02</wgt>
<wgt id='10021'>0.22143E+02</wgt>
<wgt id='10022'>0.22137E+02</wgt>
<wgt id='10023'>0.22148E+02</wgt>
<wgt id='10024'>0.22136E+02</wgt>
<wgt id='10025'>0.22132E+02</wgt>
<wgt id='10026'>0.22173E+02</wgt>
<wgt id='10027'>0.22170E+02</wgt>
<wgt id='10028'>0.22245E+02</wgt>
<wgt id='10029'>0.22177E+02</wgt>
<wgt id='10030'>0.22143E+02</wgt>
<wgt id='10031'>0.21795E+02</wgt>
<wgt id='10032'>0.22443E+02</wgt>
<wgt id='11000'>0.21093E+02</wgt>
<wgt id='11001'>0.21034E+02</wgt>
<wgt id='11002'>0.21175E+02</wgt>
<wgt id='11003'>0.21067E+02</wgt>
<wgt id='11004'>0.21183E+02</wgt>
<wgt id='11005'>0.20832E+02</wgt>
<wgt id='11006'>0.21097E+02</wgt>
<wgt id='11007'>0.21039E+02</wgt>
<wgt id='11008'>0.21036E+02</wgt>
<wgt id='11009'>0.20998E+02</wgt>
<wgt id='11010'>0.21183E+02</wgt>
<wgt id='11011'>0.20996E+02</wgt>
<wgt id='11012'>0.21114E+02</wgt>
<wgt id='11013'>0.21164E+02</wgt>
<wgt id='11014'>0.21038E+02</wgt>
<wgt id='11015'>0.21072E+02</wgt>
<wgt id='11016'>0.21068E+02</wgt>
<wgt id='11017'>0.21257E+02</wgt>
<wgt id='11018'>0.21085E+02</wgt>
<wgt id='11019'>0.21081E+02</wgt>
<wgt id='11020'>0.21142E+02</wgt>
<wgt id='11021'>0.21150E+02</wgt>
<wgt id='11022'>0.21487E+02</wgt>
<wgt id='11023'>0.21094E+02</wgt>
<wgt id='11024'>0.21099E+02</wgt>
<wgt id='11025'>0.21062E+02</wgt>
<wgt id='11026'>0.21098E+02</wgt>
<wgt id='11027'>0.21088E+02</wgt>
<wgt id='11028'>0.21104E+02</wgt>
<wgt id='11029'>0.21107E+02</wgt>
<wgt id='11030'>0.21092E+02</wgt>
<wgt id='11031'>0.20841E+02</wgt>
<wgt id='11032'>0.21300E+02</wgt>
<wgt id='12000'>0.23511E+02</wgt>
<wgt id='12001'>0.23477E+02</wgt>
<wgt id='12002'>0.23544E+02</wgt>
<wgt id='12003'>0.23573E+02</wgt>
<wgt id='12004'>0.23449E+02</wgt>
<wgt id='12005'>0.23548E+02</wgt>
<wgt id='12006'>0.23473E+02</wgt>
<wgt id='12007'>0.23577E+02</wgt>
<wgt id='12008'>0.23446E+02</wgt>
<wgt id='12009'>0.23543E+02</wgt>
<wgt id='12010'>0.23479E+02</wgt>
<wgt id='12011'>0.23451E+02</wgt>
<wgt id='12012'>0.23572E+02</wgt>
<wgt id='12013'>0.23420E+02</wgt>
<wgt id='12014'>0.23602E+02</wgt>
<wgt id='12015'>0.23510E+02</wgt>
<wgt id='12016'>0.23492E+02</wgt>
<wgt id='12017'>0.23590E+02</wgt>
<wgt id='12018'>0.23424E+02</wgt>
<wgt id='12019'>0.23437E+02</wgt>
<wgt id='12020'>0.23582E+02</wgt>
<wgt id='12021'>0.23603E+02</wgt>
<wgt id='12022'>0.23392E+02</wgt>
<wgt id='12023'>0.23401E+02</wgt>
<wgt id='12024'>0.23503E+02</wgt>
<wgt id='12025'>0.23561E+02</wgt>
<wgt id='12026'>0.23494E+02</wgt>
<wgt id='12027'>0.23521E+02</wgt>
<wgt id='12028'>0.23523E+02</wgt>
<wgt id='12050'>0.23511E+02</wgt>
<wgt id='12051'>0.23501E+02</wgt>
<wgt id='12052'>0.23509E+02</wgt>
<wgt id='12053'>0.23496E+02</wgt>
<wgt id='12054'>0.23510E+02</wgt>
<wgt id='12055'>0.23599E+02</wgt>
<wgt id='12056'>0.23363E+02</wgt>
<wgt id='12057'>0.23420E+02</wgt>
<wgt id='12058'>0.23597E+02</wgt>
<wgt id='12059'>0.23463E+02</wgt>
<wgt id='12060'>0.23566E+02</wgt>
<wgt id='12061'>0.23507E+02</wgt>
<wgt id='12062'>0.23548E+02</wgt>
<wgt id='12063'>0.23275E+02</wgt>
<wgt id='13000'>0.21373E+02</wgt>
<wgt id='13001'>0.21355E+02</wgt>
<wgt id='13002'>0.21387E+02</wgt>
<wgt id='13003'>0.21404E+02</wgt>
<wgt id='13004'>0.21338E+02</wgt>
<wgt id='13005'>0.21424E+02</wgt>
<wgt id='13006'>0.21319E+02</wgt>
<wgt id='13007'>0.21466E+02</wgt>
<wgt id='13008'>0.21279E+02</wgt>
<wgt id='13009'>0.21365E+02</wgt>
<wgt id='13010'>0.21378E+02</wgt>
<wgt id='13011'>0.21428E+02</wgt>
<wgt id='13012'>0.21315E+02</wgt>
<wgt id='13013'>0.21311E+02</wgt>
<wgt id='13014'>0.21432E+02</wgt>
<wgt id='13015'>0.21343E+02</wgt>
<wgt id='13016'>0.21390E+02</wgt>
<wgt id='13017'>0.21361E+02</wgt>
<wgt id='13018'>0.21378E+02</wgt>
<wgt id='13019'>0.21337E+02</wgt>
<wgt id='13020'>0.21404E+02</wgt>
<wgt id='13021'>0.21208E+02</wgt>
<wgt id='13022'>0.21504E+02</wgt>
<wgt id='13023'>0.21364E+02</wgt>
<wgt id='13024'>0.21375E+02</wgt>
<wgt id='13025'>0.21288E+02</wgt>
<wgt id='13026'>0.21399E+02</wgt>
<wgt id='13027'>0.21365E+02</wgt>
<wgt id='13028'>0.21402E+02</wgt>
<wgt id='13050'>0.21373E+02</wgt>
<wgt id='13051'>0.21381E+02</wgt>
<wgt id='13052'>0.21317E+02</wgt>
<wgt id='13053'>0.21373E+02</wgt>
<wgt id='13054'>0.21361E+02</wgt>
<wgt id='13055'>0.21306E+02</wgt>
<wgt id='13056'>0.21375E+02</wgt>
<wgt id='13057'>0.21297E+02</wgt>
<wgt id='13058'>0.21488E+02</wgt>
<wgt id='13059'>0.21303E+02</wgt>
<wgt id='13060'>0.21371E+02</wgt>
<wgt id='13061'>0.21303E+02</wgt>
<wgt id='13062'>0.21552E+02</wgt>
<wgt id='13063'>0.21261E+02</wgt>
<wgt id='14000'>0.21897E+02</wgt>
<wgt id='14001'>0.21894E+02</wgt>
<wgt id='14002'>0.21890E+02</wgt>
<wgt id='14003'>0.21887E+02</wgt>
<wgt id='14004'>0.21884E+02</wgt>
<wgt id='14005'>0.21880E+02</wgt>
<wgt id='14006'>0.21877E+02</wgt>
<wgt id='14007'>0.21874E+02</wgt>
<wgt id='14008'>0.21870E+02</wgt>
<wgt id='14009'>0.21867E+02</wgt>
<wgt id='14010'>0.21864E+02</wgt>
<wgt id='14011'>0.21860E+02</wgt>
<wgt id='14012'>0.21857E+02</wgt>
<wgt id='14013'>0.21854E+02</wgt>
<wgt id='14014'>0.21850E+02</wgt>
<wgt id='14015'>0.21847E+02</wgt>
<wgt id='14016'>0.21844E+02</wgt>
<wgt id='14017'>0.21840E+02</wgt>
<wgt id='14018'>0.21837E+02</wgt>
<wgt id='14019'>0.21834E+02</wgt>
<wgt id='14020'>0.21830E+02</wgt>
<wgt id='14021'>0.21827E+02</wgt>
<wgt id='14022'>0.21824E+02</wgt>
<wgt id='14023'>0.21820E+02</wgt>
<wgt id='14024'>0.21817E+02</wgt>
<wgt id='14025'>0.21814E+02</wgt>
<wgt id='14026'>0.21810E+02</wgt>
<wgt id='14027'>0.21807E+02</wgt>
<wgt id='14028'>0.21804E+02</wgt>
<wgt id='14029'>0.21800E+02</wgt>
<wgt id='14030'>0.21797E+02</wgt>
<wgt id='15000'>0.20833E+02</wgt>
<wgt id='15001'>0.20845E+02</wgt>
<wgt id='15002'>0.20930E+02</wgt>
<wgt id='15003'>0.20675E+02</wgt>
<wgt id='15004'>0.20797E+02</wgt>
<wgt id='15005'>0.20902E+02</wgt>
<wgt id='15006'>0.20798E+02</wgt>
<wgt id='15007'>0.20870E+02</wgt>
<wgt id='15008'>0.20876E+02</wgt>
<wgt id='15009'>0.20814E+02</wgt>
<wgt id='15010'>0.20769E+02</wgt>
<wgt id='15011'>0.21066E+02</wgt>
<wgt id='15012'>0.20642E+02</wgt>
<wgt id='15013'>0.20546E+02</wgt>
<wgt id='15014'>0.20650E+02</wgt>
<wgt id='15015'>0.20831E+02</wgt>
<wgt id='15016'>0.21016E+02</wgt>
<wgt id='15017'>0.20806E+02</wgt>
<wgt id='15018'>0.20785E+02</wgt>
<wgt id='15019'>0.20795E+02</wgt>
<wgt id='15020'>0.20924E+02</wgt>
<wgt id='15021'>0.20794E+02</wgt>
<wgt id='15022'>0.20866E+02</wgt>
<wgt id='15023'>0.20788E+02</wgt>
<wgt id='15024'>0.20809E+02</wgt>
<wgt id='15025'>0.20848E+02</wgt>
<wgt id='15026'>0.20829E+02</wgt>
<wgt id='15027'>0.20796E+02</wgt>
<wgt id='15028'>0.20852E+02</wgt>
<wgt id='15029'>0.20861E+02</wgt>
<wgt id='15030'>0.20836E+02</wgt>
<wgt id='15031'>0.20824E+02</wgt>
<wgt id='15032'>0.20852E+02</wgt>
<wgt id='15033'>0.20859E+02</wgt>
<wgt id='15034'>0.20825E+02</wgt>
<wgt id='15035'>0.20867E+02</wgt>
<wgt id='15036'>0.20833E+02</wgt>
<wgt id='15037'>0.20852E+02</wgt>
<wgt id='15038'>0.20836E+02</wgt>
<wgt id='15039'>0.20835E+02</wgt>
<wgt id='15040'>0.20811E+02</wgt>
<wgt id='15041'>0.20824E+02</wgt>
<wgt id='15042'>0.20828E+02</wgt>
<wgt id='15043'>0.20817E+02</wgt>
<wgt id='15044'>0.20840E+02</wgt>
<wgt id='15045'>0.20830E+02</wgt>
<wgt id='15046'>0.20805E+02</wgt>
<wgt id='15047'>0.20824E+02</wgt>
<wgt id='15048'>0.20840E+02</wgt>
<wgt id='15049'>0.20822E+02</wgt>
<wgt id='15050'>0.20838E+02</wgt>
<wgt id='15051'>0.20841E+02</wgt>
<wgt id='15052'>0.20839E+02</wgt>
<wgt id='15053'>0.20837E+02</wgt>
<wgt id='15054'>0.20824E+02</wgt>
<wgt id='15055'>0.20829E+02</wgt>
<wgt id='15056'>0.20852E+02</wgt>
<wgt id='15057'>0.20831E+02</wgt>
<wgt id='15058'>0.20818E+02</wgt>
<wgt id='15059'>0.20824E+02</wgt>
<wgt id='15060'>0.20827E+02</wgt>
<wgt id='15061'>0.20836E+02</wgt>
<wgt id='15062'>0.20836E+02</wgt>
<wgt id='15063'>0.20842E+02</wgt>
<wgt id='15064'>0.20828E+02</wgt>
<wgt id='15065'>0.20832E+02</wgt>
<wgt id='15066'>0.20835E+02</wgt>
<wgt id='15067'>0.20840E+02</wgt>
<wgt id='15068'>0.20839E+02</wgt>
<wgt id='15069'>0.20845E+02</wgt>
<wgt id='15070'>0.20831E+02</wgt>
<wgt id='15071'>0.20845E+02</wgt>
<wgt id='15072'>0.20846E+02</wgt>
<wgt id='15073'>0.20828E+02</wgt>
<wgt id='15074'>0.20836E+02</wgt>
<wgt id='15075'>0.20832E+02</wgt>
<wgt id='15076'>0.20832E+02</wgt>
<wgt id='15077'>0.20836E+02</wgt>
<wgt id='15078'>0.20836E+02</wgt>
<wgt id='15079'>0.20830E+02</wgt>
<wgt id='15080'>0.20846E+02</wgt>
<wgt id='15081'>0.20832E+02</wgt>
<wgt id='15082'>0.20838E+02</wgt>
<wgt id='15083'>0.20827E+02</wgt>
<wgt id='15084'>0.20827E+02</wgt>
<wgt id='15085'>0.20827E+02</wgt>
<wgt id='15086'>0.20836E+02</wgt>
<wgt id='15087'>0.20820E+02</wgt>
<wgt id='15088'>0.20828E+02</wgt>
<wgt id='15089'>0.20828E+02</wgt>
<wgt id='15090'>0.20836E+02</wgt>
<wgt id='15091'>0.20832E+02</wgt>
<wgt id='15092'>0.20833E+02</wgt>
<wgt id='15093'>0.20830E+02</wgt>
<wgt id='15094'>0.20832E+02</wgt>
<wgt id='15095'>0.20836E+02</wgt>
<wgt id='15096'>0.20829E+02</wgt>
<wgt id='15097'>0.20834E+02</wgt>
<wgt id='15098'>0.20833E+02</wgt>
<wgt id='15099'>0.20828E+02</wgt>
<wgt id='15100'>0.20833E+02</wgt>
<wgt id='15101'>0.20833E+02</wgt>
<wgt id='15102'>0.20831E+02</wgt>
<wgt id='15103'>0.20833E+02</wgt>
<wgt id='15104'>0.20833E+02</wgt>
<wgt id='15105'>0.20834E+02</wgt>
<wgt id='15106'>0.20833E+02</wgt>
<wgt id='15107'>0.20832E+02</wgt>
<wgt id='1500'>0.22110E+02</wgt>
<wgt id='1501'>0.20235E+02</wgt>
<wgt id='1502'>0.22064E+02</wgt>
<wgt id='1503'>0.22059E+02</wgt>
<wgt id='1504'>0.21845E+02</wgt>
<wgt id='1505'>0.19505E+02</wgt>
<wgt id='1506'>0.22448E+02</wgt>
<wgt id='1507'>0.22341E+02</wgt>
<wgt id='1508'>0.22366E+02</wgt>
<wgt id='1509'>0.22222E+02</wgt>
<wgt id='1510'>0.21313E+02</wgt>
<wgt id='1511'>0.21604E+02</wgt>
<wgt id='1512'>0.22541E+02</wgt>
<wgt id='1513'>0.22635E+02</wgt>
<wgt id='1514'>0.21591E+02</wgt>
<wgt id='1515'>0.22536E+02</wgt>
<wgt id='1516'>0.22357E+02</wgt>
<wgt id='1517'>0.21839E+02</wgt>
<wgt id='1518'>0.21927E+02</wgt>
<wgt id='1519'>0.22468E+02</wgt>
<wgt id='1520'>0.22505E+02</wgt>
<wgt id='1521'>0.22268E+02</wgt>
<wgt id='1522'>0.21913E+02</wgt>
<wgt id='1523'>0.23904E+02</wgt>
<wgt id='1524'>0.22005E+02</wgt>
<wgt id='1525'>0.22316E+02</wgt>
<wgt id='1526'>0.21852E+02</wgt>
<wgt id='1527'>0.21867E+02</wgt>
<wgt id='1528'>0.21860E+02</wgt>
<wgt id='1529'>0.22010E+02</wgt>
<wgt id='1530'>0.22628E+02</wgt>
<wgt id='1531'>0.22073E+02</wgt>
<wgt id='1532'>0.21507E+02</wgt>
<wgt id='1533'>0.22118E+02</wgt>
<wgt id='1534'>0.22237E+02</wgt>
<wgt id='1535'>0.22717E+02</wgt>
<wgt id='1536'>0.22514E+02</wgt>
<wgt id='1537'>0.22536E+02</wgt>
<wgt id='1538'>0.22505E+02</wgt>
<wgt id='1539'>0.21457E+02</wgt>
<wgt id='1540'>0.22411E+02</wgt>
<wgt id='1541'>0.22155E+02</wgt>
<wgt id='1542'>0.22192E+02</wgt>
<wgt id='1543'>0.22309E+02</wgt>
<wgt id='1544'>0.21947E+02</wgt>
<wgt id='1545'>0.22036E+02</wgt>
<wgt id='1546'>0.22464E+02</wgt>
<wgt id='1547'>0.21774E+02</wgt>
<wgt id='1548'>0.21830E+02</wgt>
<wgt id='1549'>0.21918E+02</wgt>
<wgt id='1550'>0.22079E+02</wgt>
<wgt id='1551'>0.22061E+02</wgt>
<wgt id='1552'>0.21871E+02</wgt>
<wgt id='1553'>0.22383E+02</wgt>
<wgt id='1554'>0.22304E+02</wgt>
<wgt id='1555'>0.21946E+02</wgt>
<wgt id='1556'>0.21609E+02</wgt>
<wgt id='1557'>0.22721E+02</wgt>
<wgt id='1558'>0.21840E+02</wgt>
<wgt id='1559'>0.22415E+02</wgt>
<wgt id='1560'>0.22028E+02</wgt>
<wgt id='1561'>0.22147E+02</wgt>
<wgt id='1562'>0.22113E+02</wgt>
<wgt id='1563'>0.22419E+02</wgt>
<wgt id='1564'>0.21630E+02</wgt>
<wgt id='1565'>0.22318E+02</wgt>
<wgt id='1566'>0.22271E+02</wgt>
<wgt id='1567'>0.23520E+02</wgt>
<wgt id='1568'>0.21743E+02</wgt>
<wgt id='1569'>0.21546E+02</wgt>
<wgt id='1570'>0.22035E+02</wgt>
<wgt id='1571'>0.22355E+02</wgt>
<wgt id='1572'>0.22189E+02</wgt>
<wgt id='1573'>0.20721E+02</wgt>
<wgt id='1574'>0.22323E+02</wgt>
<wgt id='1575'>0.21916E+02</wgt>
<wgt id='1576'>0.21650E+02</wgt>
<wgt id='1577'>0.22387E+02</wgt>
<wgt id='1578'>0.22921E+02</wgt>
<wgt id='1579'>0.21919E+02</wgt>
<wgt id='1580'>0.22225E+02</wgt>
<wgt id='1581'>0.22273E+02</wgt>
<wgt id='1582'>0.21884E+02</wgt>
<wgt id='1583'>0.22405E+02</wgt>
<wgt id='1584'>0.22072E+02</wgt>
<wgt id='1585'>0.21524E+02</wgt>
<wgt id='1586'>0.21989E+02</wgt>
<wgt id='1587'>0.22045E+02</wgt>
<wgt id='1588'>0.22077E+02</wgt>
<wgt id='1589'>0.22761E+02</wgt>
<wgt id='1590'>0.21995E+02</wgt>
<wgt id='1591'>0.21776E+02</wgt>
<wgt id='1592'>0.22399E+02</wgt>
<wgt id='1593'>0.21986E+02</wgt>
<wgt id='1594'>0.22586E+02</wgt>
<wgt id='1595'>0.21688E+02</wgt>
<wgt id='1596'>0.22480E+02</wgt>
<wgt id='1597'>0.22080E+02</wgt>
<wgt id='1598'>0.22875E+02</wgt>
<wgt id='1599'>0.22636E+02</wgt>
<wgt id='1600'>0.22375E+02</wgt>
<wgt id='1601'>0.21822E+02</wgt>
<wgt id='1602'>0.22254E+02</wgt>
<wgt id='1700'>0.21320E+02</wgt>
<wgt id='1800'>0.25770E+02</wgt>
<wgt id='1850'>0.30323E+02</wgt>
<wgt id='1900'>0.26099E+02</wgt>
<wgt id='1950'>0.29673E+02</wgt>
</rwgt>
</event>
<event>
      4   9999  2.16956E+01  4.36746E+01 -1.00000E+00  1.40401E-01
      21    -1     0     0   502   501  0.000000000E+00  0.000000000E+00  5.216558903E+01  5.216558903E+01  0.000000000E+00  0.00000E+00  9.000E+00
       3    -1     0     0   501     0  0.000000000E+00  0.000000000E+00 -7.668875595E+02  7.668875595E+02  0.000000000E+00  0.00000E+00  9.000E+00
      25     1     1     2     0     0 -5.541372806E+00 -4.332160897E+01 -3.369456465E+01  1.366267451E+02  1.249963006E+02  0.00000E+00  9.000E+00
       3     1     1     2   502     0  5.541372806E+00  4.332160897E+01 -6.810274058E+02  6.824264034E+02  0.000000000E+00  0.00000E+00  9.000E+00
#rwgt            1           1   18.403805533910578                1        6845           0
<rwgt>
<wgt id='1001'>0.21696E+02</wgt>
<wgt id='1002'>0.24017E+02</wgt>
<wgt id='1003'>0.19240E+02</wgt>
<wgt id='1004'>0.18398E+02</wgt>
<wgt id='1005'>0.20245E+02</wgt>
<wgt id='1006'>0.16412E+02</wgt>
<wgt id='1007'>0.25976E+02</wgt>
<wgt id='1008'>0.28974E+02</wgt>
<wgt id='1009'>0.22860E+02</wgt>
<wgt id='2000'>0.21696E+02</wgt>
<wgt id='2001'>0.21673E+02</wgt>
<wgt id='2002'>0.21792E+02</wgt>
<wgt id='2003'>0.21786E+02</wgt>
<wgt id='2004'>0.21722E+02</wgt>
<wgt id='2005'>0.21636E+02</wgt>
<wgt id='2006'>0.21629E+02</wgt>
<wgt id='2007'>0.21600E+02</wgt>
<wgt id='2008'>0.21653E+02</wgt>
<wgt id='2009'>0.21720E+02</wgt>
<wgt id='2010'>0.21677E+02</wgt>
<wgt id='2011'>0.21808E+02</wgt>
<wgt id='2012'>0.21824E+02</wgt>
<wgt id='2013'>0.21908E+02</wgt>
<wgt id='2014'>0.21777E+02</wgt>
<wgt id='2015'>0.21742E+02</wgt>
<wgt id='2016'>0.21636E+02</wgt>
<wgt id='2017'>0.21694E+02</wgt>
<wgt id='2018'>0.21783E+02</wgt>
<wgt id='2019'>0.21684E+02</wgt>
<wgt id='2020'>0.21749E+02</wgt>
<wgt id='2021'>0.21668E+02</wgt>
<wgt id='2022'>0.21698E+02</wgt>
<wgt id='2023'>0.21708E+02</wgt>
<wgt id='2024'>0.21710E+02</wgt>
<wgt id='2025'>0.21688E+02</wgt>
<wgt id='2026'>0.21691E+02</wgt>
<wgt id='2027'>0.21688E+02</wgt>
<wgt id='2028'>0.21691E+02</wgt>
<wgt id='2029'>0.21716E+02</wgt>
<wgt id='2030'>0.21702E+02</wgt>
<wgt id='2031'>0.21705E+02</wgt>
<wgt id='2032'>0.21691E+02</wgt>
<wgt id='2033'>0.21698E+02</wgt>
<wgt id='2034'>0.21710E+02</wgt>
<wgt id='2035'>0.21692E+02</wgt>
<wgt id='2036'>0.21702E+02</wgt>
<wgt id='2037'>0.21702E+02</wgt>
<wgt id='2038'>0.21695E+02</wgt>
<wgt id='2039'>0.21687E+02</wgt>
<wgt id='2040'>0.21701E+02</wgt>
<wgt id='2041'>0.21699E+02</wgt>
<wgt id='2042'>0.21689E+02</wgt>
<wgt id='2043'>0.21698E+02</wgt>
<wgt id='2044'>0.21702E+02</wgt>
<wgt id='2045'>0.21696E+02</wgt>
<wgt id='2046'>0.21701E+02</wgt>
<wgt id='2047'>0.21705E+02</wgt>
<wgt id='2048'>0.21695E+02</wgt>
<wgt id='2049'>0.21696E+02</wgt>
<wgt id='2050'>0.21700E+02</wgt>
<wgt id='2051'>0.21703E+02</wgt>
<wgt id='2052'>0.21693E+02</wgt>
<wgt id='2053'>0.21695E+02</wgt>
<wgt id='2054'>0.21694E+02</wgt>
<wgt id='2055'>0.21698E+02</wgt>
<wgt id='2056'>0.21695E+02</wgt>
<wgt id='2057'>0.21696E+02</wgt>
<wgt id='2058'>0.21698E+02</wgt>
<wgt id='2059'>0.21694E+02</wgt>
<wgt id='2060'>0.21696E+02</wgt>
<wgt id='2061'>0.21692E+02</wgt>
<wgt id='2062'>0.21696E+02</wgt>
<wgt id='2063'>0.21694E+02</wgt>
<wgt id='2064'>0.21692E+02</wgt>
<wgt id='2065'>0.21701E+02</wgt>
<wgt id='2066'>0.21694E+02</wgt>
<wgt id='2067'>0.21696E+02</wgt>
<wgt id='2068'>0.21699E+02</wgt>
<wgt id='2069'>0.21695E+02</wgt>
<wgt id='2070'>0.21694E+02</wgt>
<wgt id='2071'>0.21692E+02</wgt>
<wgt id='2072'>0.21698E+02</wgt>
<wgt id='2073'>0.21698E+02</wgt>
<wgt id='2074'>0.21695E+02</wgt>
<wgt id='2075'>0.21694E+02</wgt>
<wgt id='2076'>0.21696E+02</wgt>
<wgt id='2077'>0.21693E+02</wgt>
<wgt id='2078'>0.21694E+02</wgt>
<wgt id='2079'>0.21697E+02</wgt>
<wgt id='2080'>0.21696E+02</wgt>
<wgt id='2081'>0.21697E+02</wgt>
<wgt id='2082'>0.21697E+02</wgt>
<wgt id='2083'>0.21696E+02</wgt>
<wgt id='2084'>0.21695E+02</wgt>
<wgt id='2085'>0.21693E+02</wgt>
<wgt id='2086'>0.21695E+02</wgt>
<wgt id='2087'>0.21695E+02</wgt>
<wgt id='2088'>0.21695E+02</wgt>
<wgt id='2089'>0.21695E+02</wgt>
<wgt id='2090'>0.21697E+02</wgt>
<wgt id='2091'>0.21694E+02</wgt>
<wgt id='2092'>0.21696E+02</wgt>
<wgt id='2093'>0.21696E+02</wgt>
<wgt id='2094'>0.21697E+02</wgt>
<wgt id='2095'>0.21696E+02</wgt>
<wgt id='2096'>0.21695E+02</wgt>
<wgt id='2097'>0.21696E+02</wgt>
<wgt id='2098'>0.21694E+02</wgt>
<wgt id='2099'>0.21696E+02</wgt>
<wgt id='2100'>0.21696E+02</wgt>
<wgt id='2101'>0.21154E+02</wgt>
<wgt id='2102'>0.22161E+02</wgt>
<wgt id='2104'>0.19223E+02</wgt>
<wgt id='2105'>0.19635E+02</wgt>
<wgt id='2106'>0.20131E+02</wgt>
<wgt id='2107'>0.20695E+02</wgt>
<wgt id='2108'>0.21489E+02</wgt>
<wgt id='2109'>0.21992E+02</wgt>
<wgt id='2110'>0.22637E+02</wgt>
<wgt id='2111'>0.23140E+02</wgt>
<wgt id='3000'>0.22618E+02</wgt>
<wgt id='3001'>0.22703E+02</wgt>
<wgt id='3002'>0.22521E+02</wgt>
<wgt id='3003'>0.22710E+02</wgt>
<wgt id='3004'>0.22669E+02</wgt>
<wgt id='3005'>0.22734E+02</wgt>
<wgt id='3006'>0.22654E+02</wgt>
<wgt id='3007'>0.22671E+02</wgt>
<wgt id='3008'>0.22544E+02</wgt>
<wgt id='3009'>0.22592E+02</wgt>
<wgt id='3010'>0.22526E+02</wgt>
<wgt id='3011'>0.22675E+02</wgt>
<wgt id='3012'>0.22793E+02</wgt>
<wgt id='3013'>0.22419E+02</wgt>
<wgt id='3014'>0.22716E+02</wgt>
<wgt id='3015'>0.22713E+02</wgt>
<wgt id='3016'>0.22627E+02</wgt>
<wgt id='3017'>0.22723E+02</wgt>
<wgt id='3018'>0.22640E+02</wgt>
<wgt id='3019'>0.22542E+02</wgt>
<wgt id='3020'>0.22616E+02</wgt>
<wgt id='3021'>0.22573E+02</wgt>
<wgt id='3022'>0.22614E+02</wgt>
<wgt id='3023'>0.22603E+02</wgt>
<wgt id='3024'>0.22631E+02</wgt>
<wgt id='3025'>0.22624E+02</wgt>
<wgt id='3026'>0.22613E+02</wgt>
<wgt id='3027'>0.22627E+02</wgt>
<wgt id='3028'>0.22616E+02</wgt>
<wgt id='3029'>0.22620E+02</wgt>
<wgt id='3030'>0.22638E+02</wgt>
<wgt id='3031'>0.22625E+02</wgt>
<wgt id='3032'>0.22615E+02</wgt>
<wgt id='3033'>0.22625E+02</wgt>
<wgt id='3034'>0.22618E+02</wgt>
<wgt id='3035'>0.22636E+02</wgt>
<wgt id='3036'>0.22624E+02</wgt>
<wgt id='3037'>0.22619E+02</wgt>
<wgt id='3038'>0.22619E+02</wgt>
<wgt id='3039'>0.22610E+02</wgt>
<wgt id='3040'>0.22616E+02</wgt>
<wgt id='3041'>0.22623E+02</wgt>
<wgt id='3042'>0.22612E+02</wgt>
<wgt id='3043'>0.22613E+02</wgt>
<wgt id='3044'>0.22618E+02</wgt>
<wgt id='3045'>0.22625E+02</wgt>
<wgt id='3046'>0.22625E+02</wgt>
<wgt id='3047'>0.22616E+02</wgt>
<wgt id='3048'>0.22621E+02</wgt>
<wgt id='3049'>0.22616E+02</wgt>
<wgt id='3050'>0.22616E+02</wgt>
<wgt id='3051'>0.22627E+02</wgt>
<wgt id='3052'>0.22614E+02</wgt>
<wgt id='3053'>0.22615E+02</wgt>
<wgt id='3054'>0.22615E+02</wgt>
<wgt id='3055'>0.22613E+02</wgt>
<wgt id='3056'>0.22619E+02</wgt>
<wgt id='3057'>0.22612E+02</wgt>
<wgt id='3058'>0.22614E+02</wgt>
<wgt id='3059'>0.22617E+02</wgt>
<wgt id='3060'>0.22618E+02</wgt>
<wgt id='3061'>0.22619E+02</wgt>
<wgt id='3062'>0.22620E+02</wgt>
<wgt id='3063'>0.22624E+02</wgt>
<wgt id='3064'>0.22617E+02</wgt>
<wgt id='3065'>0.22620E+02</wgt>
<wgt id='3066'>0.22620E+02</wgt>
<wgt id='3067'>0.22614E+02</wgt>
<wgt id='3068'>0.22617E+02</wgt>
<wgt id='3069'>0.22615E+02</wgt>
<wgt id='3070'>0.22616E+02</wgt>
<wgt id='3071'>0.22618E+02</wgt>
<wgt id='3072'>0.22621E+02</wgt>
<wgt id='3073'>0.22615E+02</wgt>
<wgt id='3074'>0.22622E+02</wgt>
<wgt id='3075'>0.22620E+02</wgt>
<wgt id='3076'>0.22615E+02</wgt>
<wgt id='3077'>0.22616E+02</wgt>
<wgt id='3078'>0.22621E+02</wgt>
<wgt id='3079'>0.22617E+02</wgt>
<wgt id='3080'>0.22618E+02</wgt>
<wgt id='3081'>0.22618E+02</wgt>
<wgt id='3082'>0.22617E+02</wgt>
<wgt id='3083'>0.22617E+02</wgt>
<wgt id='3084'>0.22616E+02</wgt>
<wgt id='3085'>0.22617E+02</wgt>
<wgt id='3086'>0.22617E+02</wgt>
<wgt id='3087'>0.22616E+02</wgt>
<wgt id='3088'>0.22618E+02</wgt>
<wgt id='3089'>0.22618E+02</wgt>
<wgt id='3090'>0.22618E+02</wgt>
<wgt id='3091'>0.22619E+02</wgt>
<wgt id='3092'>0.22619E+02</wgt>
<wgt id='3093'>0.22617E+02</wgt>
<wgt id='3094'>0.22619E+02</wgt>
<wgt id='3095'>0.22618E+02</wgt>
<wgt id='3096'>0.22618E+02</wgt>
<wgt id='3097'>0.22616E+02</wgt>
<wgt id='3098'>0.22619E+02</wgt>
<wgt id='3099'>0.22619E+02</wgt>
<wgt id='3100'>0.22618E+02</wgt>
<wgt id='3101'>0.22082E+02</wgt>
<wgt id='3102'>0.23238E+02</wgt>
<wgt id='5000'>0.21107E+02</wgt>
<wgt id='5001'>0.21015E+02</wgt>
<wgt id='5002'>0.21072E+02</wgt>
<wgt id='5003'>0.20956E+02</wgt>
<wgt id='5004'>0.21161E+02</wgt>
<wgt id='5005'>0.20608E+02</wgt>
<wgt id='5006'>0.21474E+02</wgt>
<wgt id='5007'>0.21240E+02</wgt>
<wgt id='5008'>0.20819E+02</wgt>
<wgt id='5009'>0.21379E+02</wgt>
<wgt id='5010'>0.20960E+02</wgt>
<wgt id='5011'>0.21064E+02</wgt>
<wgt id='5012'>0.21094E+02</wgt>
<wgt id='5013'>0.20656E+02</wgt>
<wgt id='5014'>0.21096E+02</wgt>
<wgt id='5015'>0.21272E+02</wgt>
<wgt id='5016'>0.20599E+02</wgt>
<wgt id='5017'>0.21168E+02</wgt>
<wgt id='5018'>0.21041E+02</wgt>
<wgt id='5019'>0.21014E+02</wgt>
<wgt id='5020'>0.21177E+02</wgt>
<wgt id='5021'>0.21182E+02</wgt>
<wgt id='5022'>0.21058E+02</wgt>
<wgt id='5023'>0.21061E+02</wgt>
<wgt id='5024'>0.21150E+02</wgt>
<wgt id='5025'>0.21076E+02</wgt>
<wgt id='5026'>0.21131E+02</wgt>
<wgt id='5027'>0.21334E+02</wgt>
<wgt id='5028'>0.20724E+02</wgt>
<wgt id='5029'>0.20699E+02</wgt>
<wgt id='5030'>0.21351E+02</wgt>
<wgt id='5031'>0.20861E+02</wgt>
<wgt id='5032'>0.21461E+02</wgt>
<wgt id='5033'>0.20934E+02</wgt>
<wgt id='5034'>0.21254E+02</wgt>
<wgt id='5035'>0.20765E+02</wgt>
<wgt id='5036'>0.21382E+02</wgt>
<wgt id='5037'>0.21103E+02</wgt>
<wgt id='5038'>0.21100E+02</wgt>
<wgt id='5039'>0.21460E+02</wgt>
<wgt id='5040'>0.20925E+02</wgt>
<wgt id='5041'>0.20848E+02</wgt>
<wgt id='5042'>0.21155E+02</wgt>
<wgt id='5043'>0.21342E+02</wgt>
<wgt id='5044'>0.20516E+02</wgt>
<wgt id='5045'>0.21761E+02</wgt>
<wgt id='5046'>0.20916E+02</wgt>
<wgt id='5047'>0.21260E+02</wgt>
<wgt id='5048'>0.21201E+02</wgt>
<wgt id='5049'>0.21127E+02</wgt>
<wgt id='5050'>0.21146E+02</wgt>
<wgt id='5051'>0.21174E+02</wgt>
<wgt id='5052'>0.21086E+02</wgt>
<wgt id='5053'>0.20939E+02</wgt>
<wgt id='5054'>0.21656E+02</wgt>
<wgt id='5055'>0.20970E+02</wgt>
<wgt id='5056'>0.21220E+02</wgt>
<wgt id='5060'>0.20644E+02</wgt>
<wgt id='5070'>0.21494E+02</wgt>
<wgt id='4000'>0.22274E+02</wgt>
<wgt id='4001'>0.22300E+02</wgt>
<wgt id='4002'>0.22350E+02</wgt>
<wgt id='4003'>0.22849E+02</wgt>
<wgt id='4004'>0.22016E+02</wgt>
<wgt id='4005'>0.22363E+02</wgt>
<wgt id='4006'>0.22203E+02</wgt>
<wgt id='4007'>0.22547E+02</wgt>
<wgt id='4008'>0.22153E+02</wgt>
<wgt id='4009'>0.21773E+02</wgt>
<wgt id='4010'>0.22675E+02</wgt>
<wgt id='4011'>0.22622E+02</wgt>
<wgt id='4012'>0.22076E+02</wgt>
<wgt id='4013'>0.21407E+02</wgt>
<wgt id='4014'>0.22775E+02</wgt>
<wgt id='4015'>0.22459E+02</wgt>
<wgt id='4016'>0.22151E+02</wgt>
<wgt id='4017'>0.22071E+02</wgt>
<wgt id='4018'>0.22516E+02</wgt>
<wgt id='4019'>0.22567E+02</wgt>
<wgt id='4020'>0.21944E+02</wgt>
<wgt id='4021'>0.22332E+02</wgt>
<wgt id='4022'>0.22149E+02</wgt>
<wgt id='4023'>0.22154E+02</wgt>
<wgt id='4024'>0.22381E+02</wgt>
<wgt id='4025'>0.21928E+02</wgt>
<wgt id='4026'>0.22591E+02</wgt>
<wgt id='4027'>0.22193E+02</wgt>
<wgt id='4028'>0.22382E+02</wgt>
<wgt id='4029'>0.22102E+02</wgt>
<wgt id='4030'>0.22333E+02</wgt>
<wgt id='4031'>0.22308E+02</wgt>
<wgt id='4032'>0.22230E+02</wgt>
<wgt id='4033'>0.22265E+02</wgt>
<wgt id='4034'>0.22289E+02</wgt>
<wgt id='4035'>0.22626E+02</wgt>
<wgt id='4036'>0.21935E+02</wgt>
<wgt id='4037'>0.22471E+02</wgt>
<wgt id='4038'>0.21944E+02</wgt>
<wgt id='4039'>0.22263E+02</wgt>
<wgt id='4040'>0.22237E+02</wgt>
<wgt id='4041'>0.22472E+02</wgt>
<wgt id='4042'>0.22090E+02</wgt>
<wgt id='4043'>0.22483E+02</wgt>
<wgt id='4044'>0.22029E+02</wgt>
<wgt id='4045'>0.22015E+02</wgt>
<wgt id='4046'>0.22152E+02</wgt>
<wgt id='4047'>0.21955E+02</wgt>
<wgt id='4048'>0.22550E+02</wgt>
<wgt id='4049'>0.22407E+02</wgt>
<wgt id='4050'>0.21794E+02</wgt>
<wgt id='4051'>0.22225E+02</wgt>
<wgt id='4052'>0.22210E+02</wgt>
<wgt id='4053'>0.21684E+02</wgt>
<wgt id='4054'>0.22440E+02</wgt>
<wgt id='4055'>0.22088E+02</wgt>
<wgt id='4056'>0.22440E+02</wgt>
<wgt id='4060'>0.21699E+02</wgt>
<wgt id='4070'>0.22794E+02</wgt>
<wgt id='4080'>0.21839E+02</wgt>
<wgt id='6000'>0.22687E+02</wgt>
<wgt id='6001'>0.22692E+02</wgt>
<wgt id='6002'>0.22682E+02</wgt>
<wgt id='6003'>0.22696E+02</wgt>
<wgt id='6004'>0.22681E+02</wgt>
<wgt id='6005'>0.22752E+02</wgt>
<wgt id='6006'>0.22627E+02</wgt>
<wgt id='6007'>0.22587E+02</wgt>
<wgt id='6008'>0.22799E+02</wgt>
<wgt id='6009'>0.22752E+02</wgt>
<wgt id='6010'>0.22624E+02</wgt>
<wgt id='6011'>0.22734E+02</wgt>
<wgt id='6012'>0.22585E+02</wgt>
<wgt id='6013'>0.22664E+02</wgt>
<wgt id='6014'>0.22728E+02</wgt>
<wgt id='6015'>0.22614E+02</wgt>
<wgt id='6016'>0.22729E+02</wgt>
<wgt id='6017'>0.22565E+02</wgt>
<wgt id='6018'>0.22832E+02</wgt>
<wgt id='6019'>0.22728E+02</wgt>
<wgt id='6020'>0.22652E+02</wgt>
<wgt id='6021'>0.22637E+02</wgt>
<wgt id='6022'>0.22755E+02</wgt>
<wgt id='6023'>0.22530E+02</wgt>
<wgt id='6024'>0.22797E+02</wgt>
<wgt id='6025'>0.22400E+02</wgt>
<wgt id='6026'>0.22947E+02</wgt>
<wgt id='6027'>0.22745E+02</wgt>
<wgt id='6028'>0.22688E+02</wgt>
<wgt id='6029'>0.22833E+02</wgt>
<wgt id='6030'>0.22518E+02</wgt>
<wgt id='6031'>0.22719E+02</wgt>
<wgt id='6032'>0.22644E+02</wgt>
<wgt id='6033'>0.22729E+02</wgt>
<wgt id='6034'>0.22642E+02</wgt>
<wgt id='6035'>0.22670E+02</wgt>
<wgt id='6036'>0.22768E+02</wgt>
<wgt id='6037'>0.22729E+02</wgt>
<wgt id='6038'>0.22682E+02</wgt>
<wgt id='6039'>0.22669E+02</wgt>
<wgt id='6040'>0.22707E+02</wgt>
<wgt id='6041'>0.22641E+02</wgt>
<wgt id='6042'>0.22744E+02</wgt>
<wgt id='6043'>0.22969E+02</wgt>
<wgt id='6044'>0.22542E+02</wgt>
<wgt id='6045'>0.22668E+02</wgt>
<wgt id='6046'>0.22736E+02</wgt>
<wgt id='6047'>0.22610E+02</wgt>
<wgt id='6048'>0.22577E+02</wgt>
<wgt id='6049'>0.22652E+02</wgt>
<wgt id='6050'>0.22690E+02</wgt>
<wgt id='7000'>0.21275E+02</wgt>
<wgt id='7001'>0.21263E+02</wgt>
<wgt id='7002'>0.21291E+02</wgt>
<wgt id='7003'>0.21342E+02</wgt>
<wgt id='7004'>0.21209E+02</wgt>
<wgt id='7005'>0.21315E+02</wgt>
<wgt id='7006'>0.21259E+02</wgt>
<wgt id='7007'>0.21189E+02</wgt>
<wgt id='7008'>0.21361E+02</wgt>
<wgt id='7009'>0.21308E+02</wgt>
<wgt id='7010'>0.21243E+02</wgt>
<wgt id='7011'>0.21081E+02</wgt>
<wgt id='7012'>0.21359E+02</wgt>
<wgt id='7013'>0.21277E+02</wgt>
<wgt id='7014'>0.21272E+02</wgt>
<wgt id='7015'>0.21217E+02</wgt>
<wgt id='7016'>0.21338E+02</wgt>
<wgt id='7017'>0.21239E+02</wgt>
<wgt id='7018'>0.21293E+02</wgt>
<wgt id='7019'>0.21245E+02</wgt>
<wgt id='7020'>0.21315E+02</wgt>
<wgt id='7021'>0.21269E+02</wgt>
<wgt id='7022'>0.21279E+02</wgt>
<wgt id='7023'>0.21523E+02</wgt>
<wgt id='7024'>0.21035E+02</wgt>
<wgt id='7025'>0.21371E+02</wgt>
<wgt id='7026'>0.21040E+02</wgt>
<wgt id='7027'>0.21368E+02</wgt>
<wgt id='7028'>0.21230E+02</wgt>
<wgt id='7029'>0.21173E+02</wgt>
<wgt id='7030'>0.21545E+02</wgt>
<wgt id='7031'>0.21275E+02</wgt>
<wgt id='7032'>0.21281E+02</wgt>
<wgt id='7033'>0.21244E+02</wgt>
<wgt id='7034'>0.21346E+02</wgt>
<wgt id='7035'>0.21334E+02</wgt>
<wgt id='7036'>0.21258E+02</wgt>
<wgt id='7037'>0.21285E+02</wgt>
<wgt id='7038'>0.21275E+02</wgt>
<wgt id='7039'>0.21258E+02</wgt>
<wgt id='7040'>0.21287E+02</wgt>
<wgt id='7041'>0.21235E+02</wgt>
<wgt id='7042'>0.21297E+02</wgt>
<wgt id='7043'>0.21294E+02</wgt>
<wgt id='7044'>0.21166E+02</wgt>
<wgt id='7045'>0.21105E+02</wgt>
<wgt id='7046'>0.21306E+02</wgt>
<wgt id='7047'>0.21279E+02</wgt>
<wgt id='7048'>0.21263E+02</wgt>
<wgt id='7049'>0.21260E+02</wgt>
<wgt id='7050'>0.21212E+02</wgt>
<wgt id='7060'>0.32512E+02</wgt>
<wgt id='8000'>0.21506E+02</wgt>
<wgt id='8001'>0.21500E+02</wgt>
<wgt id='8002'>0.21512E+02</wgt>
<wgt id='8003'>0.21508E+02</wgt>
<wgt id='8004'>0.21505E+02</wgt>
<wgt id='8005'>0.21455E+02</wgt>
<wgt id='8006'>0.21491E+02</wgt>
<wgt id='8007'>0.21477E+02</wgt>
<wgt id='8008'>0.21543E+02</wgt>
<wgt id='8009'>0.21584E+02</wgt>
<wgt id='8010'>0.21506E+02</wgt>
<wgt id='8011'>0.21494E+02</wgt>
<wgt id='8012'>0.21482E+02</wgt>
<wgt id='8013'>0.21502E+02</wgt>
<wgt id='8014'>0.21492E+02</wgt>
<wgt id='8015'>0.21490E+02</wgt>
<wgt id='8016'>0.21510E+02</wgt>
<wgt id='8017'>0.21506E+02</wgt>
<wgt id='8018'>0.21501E+02</wgt>
<wgt id='8019'>0.21545E+02</wgt>
<wgt id='8020'>0.21430E+02</wgt>
<wgt id='8021'>0.21509E+02</wgt>
<wgt id='8022'>0.21368E+02</wgt>
<wgt id='8023'>0.21534E+02</wgt>
<wgt id='8024'>0.21559E+02</wgt>
<wgt id='8025'>0.21586E+02</wgt>
<wgt id='8026'>0.21551E+02</wgt>
<wgt id='8027'>0.21466E+02</wgt>
<wgt id='8028'>0.21526E+02</wgt>
<wgt id='8029'>0.21358E+02</wgt>
<wgt id='8500'>0.22373E+02</wgt>
<wgt id='8501'>0.22331E+02</wgt>
<wgt id='8502'>0.22602E+02</wgt>
<wgt id='8503'>0.22533E+02</wgt>
<wgt id='8504'>0.22318E+02</wgt>
<wgt id='8505'>0.22260E+02</wgt>
<wgt id='8506'>0.22308E+02</wgt>
<wgt id='8507'>0.22513E+02</wgt>
<wgt id='8508'>0.22721E+02</wgt>
<wgt id='8509'>0.22220E+02</wgt>
<wgt id='8510'>0.22705E+02</wgt>
<wgt id='8511'>0.22388E+02</wgt>
<wgt id='8512'>0.22108E+02</wgt>
<wgt id='8513'>0.22404E+02</wgt>
<wgt id='8514'>0.22290E+02</wgt>
<wgt id='8515'>0.22375E+02</wgt>
<wgt id='8516'>0.22445E+02</wgt>
<wgt id='8517'>0.22344E+02</wgt>
<wgt id='8518'>0.22311E+02</wgt>
<wgt id='8519'>0.22309E+02</wgt>
<wgt id='8520'>0.22392E+02</wgt>
<wgt id='8521'>0.22283E+02</wgt>
<wgt id='8522'>0.22382E+02</wgt>
<wgt id='8523'>0.22336E+02</wgt>
<wgt id='8524'>0.22373E+02</wgt>
<wgt id='8525'>0.22350E+02</wgt>
<wgt id='8526'>0.22337E+02</wgt>
<wgt id='8527'>0.22370E+02</wgt>
<wgt id='8528'>0.22316E+02</wgt>
<wgt id='8529'>0.22359E+02</wgt>
<wgt id='8530'>0.22375E+02</wgt>
<wgt id='8531'>0.22365E+02</wgt>
<wgt id='8532'>0.22377E+02</wgt>
<wgt id='8533'>0.22328E+02</wgt>
<wgt id='8534'>0.22383E+02</wgt>
<wgt id='8535'>0.22423E+02</wgt>
<wgt id='8536'>0.22358E+02</wgt>
<wgt id='8537'>0.22382E+02</wgt>
<wgt id='8538'>0.22350E+02</wgt>
<wgt id='8539'>0.22377E+02</wgt>
<wgt id='8540'>0.22378E+02</wgt>
<wgt id='8541'>0.22384E+02</wgt>
<wgt id='8542'>0.22390E+02</wgt>
<wgt id='8543'>0.22354E+02</wgt>
<wgt id='8544'>0.22397E+02</wgt>
<wgt id='8545'>0.22392E+02</wgt>
<wgt id='8546'>0.22394E+02</wgt>
<wgt id='8547'>0.22354E+02</wgt>
<wgt id='8548'>0.22351E+02</wgt>
<wgt id='8549'>0.22374E+02</wgt>
<wgt id='8550'>0.22378E+02</wgt>
<wgt id='8551'>0.22352E+02</wgt>
<wgt id='8552'>0.22378E+02</wgt>
<wgt id='8553'>0.22364E+02</wgt>
<wgt id='8554'>0.22363E+02</wgt>
<wgt id='8555'>0.22376E+02</wgt>
<wgt id='8556'>0.22372E+02</wgt>
<wgt id='8557'>0.22368E+02</wgt>
<wgt id='8558'>0.22397E+02</wgt>
<wgt id='8559'>0.22362E+02</wgt>
<wgt id='8560'>0.22350E+02</wgt>
<wgt id='8561'>0.22370E+02</wgt>
<wgt id='8562'>0.22357E+02</wgt>
<wgt id='8563'>0.22374E+02</wgt>
<wgt id='8564'>0.22369E+02</wgt>
<wgt id='8565'>0.22372E+02</wgt>
<wgt id='8566'>0.22369E+02</wgt>
<wgt id='8567'>0.22372E+02</wgt>
<wgt id='8568'>0.22381E+02</wgt>
<wgt id='8569'>0.22379E+02</wgt>
<wgt id='8570'>0.22371E+02</wgt>
<wgt id='8571'>0.22364E+02</wgt>
<wgt id='8572'>0.22367E+02</wgt>
<wgt id='8573'>0.22364E+02</wgt>
<wgt id='8574'>0.22378E+02</wgt>
<wgt id='8575'>0.22370E+02</wgt>
<wgt id='8576'>0.22371E+02</wgt>
<wgt id='8577'>0.22372E+02</wgt>
<wgt id='8578'>0.22375E+02</wgt>
<wgt id='8579'>0.22386E+02</wgt>
<wgt id='8580'>0.22373E+02</wgt>
<wgt id='8581'>0.22377E+02</wgt>
<wgt id='8582'>0.22360E+02</wgt>
<wgt id='8583'>0.22382E+02</wgt>
<wgt id='8584'>0.22378E+02</wgt>
<wgt id='8585'>0.22377E+02</wgt>
<wgt id='8586'>0.22383E+02</wgt>
<wgt id='8587'>0.22370E+02</wgt>
<wgt id='8588'>0.22368E+02</wgt>
<wgt id='8589'>0.22374E+02</wgt>
<wgt id='8590'>0.22371E+02</wgt>
<wgt id='8591'>0.22370E+02</wgt>
<wgt id='8592'>0.22372E+02</wgt>
<wgt id='8593'>0.22365E+02</wgt>
<wgt id='8594'>0.22376E+02</wgt>
<wgt id='8595'>0.22375E+02</wgt>
<wgt id='8596'>0.22368E+02</wgt>
<wgt id='8597'>0.22376E+02</wgt>
<wgt id='8598'>0.22378E+02</wgt>
<wgt id='8599'>0.22376E+02</wgt>
<wgt id='8600'>0.22373E+02</wgt>
<wgt id='8601'>0.21954E+02</wgt>
<wgt id='8602'>0.22732E+02</wgt>
<wgt id='9000'>0.21239E+02</wgt>
<wgt id='9001'>0.21280E+02</wgt>
<wgt id='9002'>0.21350E+02</wgt>
<wgt id='9003'>0.21046E+02</wgt>
<wgt id='9004'>0.21199E+02</wgt>
<wgt id='9005'>0.21352E+02</wgt>
<wgt id='9006'>0.21177E+02</wgt>
<wgt id='9007'>0.21242E+02</wgt>
<wgt id='9008'>0.21285E+02</wgt>
<wgt id='9009'>0.21227E+02</wgt>
<wgt id='9010'>0.21209E+02</wgt>
<wgt id='9011'>0.21469E+02</wgt>
<wgt id='9012'>0.20957E+02</wgt>
<wgt id='9013'>0.20955E+02</wgt>
<wgt id='9014'>0.20984E+02</wgt>
<wgt id='9015'>0.21212E+02</wgt>
<wgt id='9016'>0.21312E+02</wgt>
<wgt id='9017'>0.21255E+02</wgt>
<wgt id='9018'>0.21240E+02</wgt>
<wgt id='9019'>0.21220E+02</wgt>
<wgt id='9020'>0.21327E+02</wgt>
<wgt id='9021'>0.21235E+02</wgt>
<wgt id='9022'>0.21264E+02</wgt>
<wgt id='9023'>0.21210E+02</wgt>
<wgt id='9024'>0.21208E+02</wgt>
<wgt id='9025'>0.21268E+02</wgt>
<wgt id='9026'>0.21251E+02</wgt>
<wgt id='9027'>0.21219E+02</wgt>
<wgt id='9028'>0.21255E+02</wgt>
<wgt id='9029'>0.21260E+02</wgt>
<wgt id='9030'>0.21251E+02</wgt>
<wgt id='9031'>0.21235E+02</wgt>
<wgt id='9032'>0.21252E+02</wgt>
<wgt id='9033'>0.21266E+02</wgt>
<wgt id='9034'>0.21225E+02</wgt>
<wgt id='9035'>0.21275E+02</wgt>
<wgt id='9036'>0.21236E+02</wgt>
<wgt id='9037'>0.21260E+02</wgt>
<wgt id='9038'>0.21238E+02</wgt>
<wgt id='9039'>0.21240E+02</wgt>
<wgt id='9040'>0.21213E+02</wgt>
<wgt id='9041'>0.21229E+02</wgt>
<wgt id='9042'>0.21234E+02</wgt>
<wgt id='9043'>0.21223E+02</wgt>
<wgt id='9044'>0.21246E+02</wgt>
<wgt id='9045'>0.21234E+02</wgt>
<wgt id='9046'>0.21209E+02</wgt>
<wgt id='9047'>0.21227E+02</wgt>
<wgt id='9048'>0.21247E+02</wgt>
<wgt id='9049'>0.21228E+02</wgt>
<wgt id='9050'>0.21245E+02</wgt>
<wgt id='9051'>0.21246E+02</wgt>
<wgt id='9052'>0.21243E+02</wgt>
<wgt id='9053'>0.21242E+02</wgt>
<wgt id='9054'>0.21228E+02</wgt>
<wgt id='9055'>0.21236E+02</wgt>
<wgt id='9056'>0.21260E+02</wgt>
<wgt id='9057'>0.21237E+02</wgt>
<wgt id='9058'>0.21225E+02</wgt>
<wgt id='9059'>0.21230E+02</wgt>
<wgt id='9060'>0.21233E+02</wgt>
<wgt id='9061'>0.21242E+02</wgt>
<wgt id='9062'>0.21242E+02</wgt>
<wgt id='9063'>0.21248E+02</wgt>
<wgt id='9064'>0.21235E+02</wgt>
<wgt id='9065'>0.21238E+02</wgt>
<wgt id='9066'>0.21241E+02</wgt>
<wgt id='9067'>0.21246E+02</wgt>
<wgt id='9068'>0.21246E+02</wgt>
<wgt id='9069'>0.21250E+02</wgt>
<wgt id='9070'>0.21237E+02</wgt>
<wgt id='9071'>0.21251E+02</wgt>
<wgt id='9072'>0.21251E+02</wgt>
<wgt id='9073'>0.21233E+02</wgt>
<wgt id='9074'>0.21242E+02</wgt>
<wgt id='9075'>0.21238E+02</wgt>
<wgt id='9076'>0.21237E+02</wgt>
<wgt id='9077'>0.21242E+02</wgt>
<wgt id='9078'>0.21241E+02</wgt>
<wgt id='9079'>0.21235E+02</wgt>
<wgt id='9080'>0.21253E+02</wgt>
<wgt id='9081'>0.21237E+02</wgt>
<wgt id='9082'>0.21244E+02</wgt>
<wgt id='9083'>0.21233E+02</wgt>
<wgt id='9084'>0.21233E+02</wgt>
<wgt id='9085'>0.21234E+02</wgt>
<wgt id='9086'>0.21242E+02</wgt>
<wgt id='9087'>0.21226E+02</wgt>
<wgt id='9088'>0.21234E+02</wgt>
<wgt id='9089'>0.21234E+02</wgt>
<wgt id='9090'>0.21242E+02</wgt>
<wgt id='9091'>0.21237E+02</wgt>
<wgt id='9092'>0.21238E+02</wgt>
<wgt id='9093'>0.21236E+02</wgt>
<wgt id='9094'>0.21238E+02</wgt>
<wgt id='9095'>0.21241E+02</wgt>
<wgt id='9096'>0.21235E+02</wgt>
<wgt id='9097'>0.21240E+02</wgt>
<wgt id='9098'>0.21239E+02</wgt>
<wgt id='9099'>0.21234E+02</wgt>
<wgt id='9100'>0.21239E+02</wgt>
<wgt id='9101'>0.20926E+02</wgt>
<wgt id='9102'>0.21483E+02</wgt>
<wgt id='10000'>0.22371E+02</wgt>
<wgt id='10001'>0.22471E+02</wgt>
<wgt id='10002'>0.22384E+02</wgt>
<wgt id='10003'>0.22377E+02</wgt>
<wgt id='10004'>0.22461E+02</wgt>
<wgt id='10005'>0.23020E+02</wgt>
<wgt id='10006'>0.22376E+02</wgt>
<wgt id='10007'>0.22367E+02</wgt>
<wgt id='10008'>0.22398E+02</wgt>
<wgt id='10009'>0.22333E+02</wgt>
<wgt id='10010'>0.22374E+02</wgt>
<wgt id='10011'>0.22347E+02</wgt>
<wgt id='10012'>0.22335E+02</wgt>
<wgt id='10013'>0.22364E+02</wgt>
<wgt id='10014'>0.22383E+02</wgt>
<wgt id='10015'>0.22398E+02</wgt>
<wgt id='10016'>0.22383E+02</wgt>
<wgt id='10017'>0.22232E+02</wgt>
<wgt id='10018'>0.22390E+02</wgt>
<wgt id='10019'>0.22328E+02</wgt>
<wgt id='10020'>0.22386E+02</wgt>
<wgt id='10021'>0.22375E+02</wgt>
<wgt id='10022'>0.22365E+02</wgt>
<wgt id='10023'>0.22383E+02</wgt>
<wgt id='10024'>0.22375E+02</wgt>
<wgt id='10025'>0.22358E+02</wgt>
<wgt id='10026'>0.22364E+02</wgt>
<wgt id='10027'>0.22363E+02</wgt>
<wgt id='10028'>0.22401E+02</wgt>
<wgt id='10029'>0.22393E+02</wgt>
<wgt id='10030'>0.22361E+02</wgt>
<wgt id='10031'>0.21954E+02</wgt>
<wgt id='10032'>0.22732E+02</wgt>
<wgt id='11000'>0.21236E+02</wgt>
<wgt id='11001'>0.21260E+02</wgt>
<wgt id='11002'>0.21307E+02</wgt>
<wgt id='11003'>0.21214E+02</wgt>
<wgt id='11004'>0.21301E+02</wgt>
<wgt id='11005'>0.20947E+02</wgt>
<wgt id='11006'>0.21229E+02</wgt>
<wgt id='11007'>0.21193E+02</wgt>
<wgt id='11008'>0.21195E+02</wgt>
<wgt id='11009'>0.21135E+02</wgt>
<wgt id='11010'>0.21290E+02</wgt>
<wgt id='11011'>0.21113E+02</wgt>
<wgt id='11012'>0.21254E+02</wgt>
<wgt id='11013'>0.21321E+02</wgt>
<wgt id='11014'>0.21169E+02</wgt>
<wgt id='11015'>0.21209E+02</wgt>
<wgt id='11016'>0.21216E+02</wgt>
<wgt id='11017'>0.21413E+02</wgt>
<wgt id='11018'>0.21241E+02</wgt>
<wgt id='11019'>0.21233E+02</wgt>
<wgt id='11020'>0.21253E+02</wgt>
<wgt id='11021'>0.21309E+02</wgt>
<wgt id='11022'>0.21656E+02</wgt>
<wgt id='11023'>0.21224E+02</wgt>
<wgt id='11024'>0.21214E+02</wgt>
<wgt id='11025'>0.21178E+02</wgt>
<wgt id='11026'>0.21233E+02</wgt>
<wgt id='11027'>0.21232E+02</wgt>
<wgt id='11028'>0.21222E+02</wgt>
<wgt id='11029'>0.21221E+02</wgt>
<wgt id='11030'>0.21240E+02</wgt>
<wgt id='11031'>0.20926E+02</wgt>
<wgt id='11032'>0.21483E+02</wgt>
<wgt id='12000'>0.23757E+02</wgt>
<wgt id='12001'>0.23725E+02</wgt>
<wgt id='12002'>0.23788E+02</wgt>
<wgt id='12003'>0.23815E+02</wgt>
<wgt id='12004'>0.23698E+02</wgt>
<wgt id='12005'>0.23797E+02</wgt>
<wgt id='12006'>0.23716E+02</wgt>
<wgt id='12007'>0.23820E+02</wgt>
<wgt id='12008'>0.23695E+02</wgt>
<wgt id='12009'>0.23796E+02</wgt>
<wgt id='12010'>0.23717E+02</wgt>
<wgt id='12011'>0.23722E+02</wgt>
<wgt id='12012'>0.23795E+02</wgt>
<wgt id='12013'>0.23662E+02</wgt>
<wgt id='12014'>0.23853E+02</wgt>
<wgt id='12015'>0.23760E+02</wgt>
<wgt id='12016'>0.23719E+02</wgt>
<wgt id='12017'>0.23826E+02</wgt>
<wgt id='12018'>0.23678E+02</wgt>
<wgt id='12019'>0.23668E+02</wgt>
<wgt id='12020'>0.23842E+02</wgt>
<wgt id='12021'>0.23851E+02</wgt>
<wgt id='12022'>0.23634E+02</wgt>
<wgt id='12023'>0.23673E+02</wgt>
<wgt id='12024'>0.23721E+02</wgt>
<wgt id='12025'>0.23832E+02</wgt>
<wgt id='12026'>0.23715E+02</wgt>
<wgt id='12027'>0.23714E+02</wgt>
<wgt id='12028'>0.23819E+02</wgt>
<wgt id='12050'>0.23757E+02</wgt>
<wgt id='12051'>0.23732E+02</wgt>
<wgt id='12052'>0.23774E+02</wgt>
<wgt id='12053'>0.23726E+02</wgt>
<wgt id='12054'>0.23769E+02</wgt>
<wgt id='12055'>0.23822E+02</wgt>
<wgt id='12056'>0.23560E+02</wgt>
<wgt id='12057'>0.23660E+02</wgt>
<wgt id='12058'>0.23845E+02</wgt>
<wgt id='12059'>0.23695E+02</wgt>
<wgt id='12060'>0.23823E+02</wgt>
<wgt id='12061'>0.23759E+02</wgt>
<wgt id='12062'>0.23802E+02</wgt>
<wgt id='12063'>0.23525E+02</wgt>
<wgt id='13000'>0.21412E+02</wgt>
<wgt id='13001'>0.21396E+02</wgt>
<wgt id='13002'>0.21425E+02</wgt>
<wgt id='13003'>0.21438E+02</wgt>
<wgt id='13004'>0.21383E+02</wgt>
<wgt id='13005'>0.21463E+02</wgt>
<wgt id='13006'>0.21358E+02</wgt>
<wgt id='13007'>0.21502E+02</wgt>
<wgt id='13008'>0.21322E+02</wgt>
<wgt id='13009'>0.21418E+02</wgt>
<wgt id='13010'>0.21404E+02</wgt>
<wgt id='13011'>0.21462E+02</wgt>
<wgt id='13012'>0.21359E+02</wgt>
<wgt id='13013'>0.21345E+02</wgt>
<wgt id='13014'>0.21476E+02</wgt>
<wgt id='13015'>0.21375E+02</wgt>
<wgt id='13016'>0.21427E+02</wgt>
<wgt id='13017'>0.21397E+02</wgt>
<wgt id='13018'>0.21420E+02</wgt>
<wgt id='13019'>0.21373E+02</wgt>
<wgt id='13020'>0.21446E+02</wgt>
<wgt id='13021'>0.21229E+02</wgt>
<wgt id='13022'>0.21562E+02</wgt>
<wgt id='13023'>0.21427E+02</wgt>
<wgt id='13024'>0.21392E+02</wgt>
<wgt id='13025'>0.21371E+02</wgt>
<wgt id='13026'>0.21398E+02</wgt>
<wgt id='13027'>0.21425E+02</wgt>
<wgt id='13028'>0.21419E+02</wgt>
<wgt id='13050'>0.21412E+02</wgt>
<wgt id='13051'>0.21414E+02</wgt>
<wgt id='13052'>0.21366E+02</wgt>
<wgt id='13053'>0.21405E+02</wgt>
<wgt id='13054'>0.21403E+02</wgt>
<wgt id='13055'>0.21395E+02</wgt>
<wgt id='13056'>0.21416E+02</wgt>
<wgt id='13057'>0.21335E+02</wgt>
<wgt id='13058'>0.21523E+02</wgt>
<wgt id='13059'>0.21353E+02</wgt>
<wgt id='13060'>0.21487E+02</wgt>
<wgt id='13061'>0.21360E+02</wgt>
<wgt id='13062'>0.21567E+02</wgt>
<wgt id='13063'>0.21265E+02</wgt>
<wgt id='14000'>0.22187E+02</wgt>
<wgt id='14001'>0.22183E+02</wgt>
<wgt id='14002'>0.22180E+02</wgt>
<wgt id='14003'>0.22176E+02</wgt>
<wgt id='14004'>0.22173E+02</wgt>
<wgt id='14005'>0.22169E+02</wgt>
<wgt id='14006'>0.22165E+02</wgt>
<wgt id='14007'>0.22162E+02</wgt>
<wgt id='14008'>0.22158E+02</wgt>
<wgt id='14009'>0.22155E+02</wgt>
<wgt id='14010'>0.22151E+02</wgt>
<wgt id='14011'>0.22147E+02</wgt>
<wgt id='14012'>0.22144E+02</wgt>
<wgt id='14013'>0.22140E+02</wgt>
<wgt id='14014'>0.22136E+02</wgt>
<wgt id='14015'>0.22133E+02</wgt>
<wgt id='14016'>0.22129E+02</wgt>
<wgt id='14017'>0.22126E+02</wgt>
<wgt id='14018'>0.22122E+02</wgt>
<wgt id='14019'>0.22118E+02</wgt>
<wgt id='14020'>0.22115E+02</wgt>
<wgt id='14021'>0.22111E+02</wgt>
<wgt id='14022'>0.22107E+02</wgt>
<wgt id='14023'>0.22104E+02</wgt>
<wgt id='14024'>0.22100E+02</wgt>
<wgt id='14025'>0.22097E+02</wgt>
<wgt id='14026'>0.22093E+02</wgt>
<wgt id='14027'>0.22090E+02</wgt>
<wgt id='14028'>0.22086E+02</wgt>
<wgt id='14029'>0.22083E+02</wgt>
<wgt id='14030'>0.22079E+02</wgt>
<wgt id='15000'>0.20986E+02</wgt>
<wgt id='15001'>0.21026E+02</wgt>
<wgt id='15002'>0.21095E+02</wgt>
<wgt id='15003'>0.20795E+02</wgt>
<wgt id='15004'>0.20946E+02</wgt>
<wgt id='15005'>0.21098E+02</wgt>
<wgt id='15006'>0.20925E+02</wgt>
<wgt id='15007'>0.20989E+02</wgt>
<wgt id='15008'>0.21031E+02</wgt>
<wgt id='15009'>0.20974E+02</wgt>
<wgt id='15010'>0.20956E+02</wgt>
<wgt id='15011'>0.21213E+02</wgt>
<wgt id='15012'>0.20708E+02</wgt>
<wgt id='15013'>0.20706E+02</wgt>
<wgt id='15014'>0.20734E+02</wgt>
<wgt id='15015'>0.20957E+02</wgt>
<wgt id='15016'>0.21058E+02</wgt>
<wgt id='15017'>0.21001E+02</wgt>
<wgt id='15018'>0.20986E+02</wgt>
<wgt id='15019'>0.20968E+02</wgt>
<wgt id='15020'>0.21073E+02</wgt>
<wgt id='15021'>0.20980E+02</wgt>
<wgt id='15022'>0.21011E+02</wgt>
<wgt id='15023'>0.20956E+02</wgt>
<wgt id='15024'>0.20954E+02</wgt>
<wgt id='15025'>0.21014E+02</wgt>
<wgt id='15026'>0.20996E+02</wgt>
<wgt id='15027'>0.20966E+02</wgt>
<wgt id='15028'>0.21002E+02</wgt>
<wgt id='15029'>0.21007E+02</wgt>
<wgt id='15030'>0.20996E+02</wgt>
<wgt id='15031'>0.20982E+02</wgt>
<wgt id='15032'>0.20999E+02</wgt>
<wgt id='15033'>0.21013E+02</wgt>
<wgt id='15034'>0.20971E+02</wgt>
<wgt id='15035'>0.21021E+02</wgt>
<wgt id='15036'>0.20983E+02</wgt>
<wgt id='15037'>0.21006E+02</wgt>
<wgt id='15038'>0.20985E+02</wgt>
<wgt id='15039'>0.20986E+02</wgt>
<wgt id='15040'>0.20960E+02</wgt>
<wgt id='15041'>0.20975E+02</wgt>
<wgt id='15042'>0.20980E+02</wgt>
<wgt id='15043'>0.20970E+02</wgt>
<wgt id='15044'>0.20992E+02</wgt>
<wgt id='15045'>0.20981E+02</wgt>
<wgt id='15046'>0.20956E+02</wgt>
<wgt id='15047'>0.20973E+02</wgt>
<wgt id='15048'>0.20993E+02</wgt>
<wgt id='15049'>0.20975E+02</wgt>
<wgt id='15050'>0.20991E+02</wgt>
<wgt id='15051'>0.20993E+02</wgt>
<wgt id='15052'>0.20989E+02</wgt>
<wgt id='15053'>0.20989E+02</wgt>
<wgt id='15054'>0.20974E+02</wgt>
<wgt id='15055'>0.20982E+02</wgt>
<wgt id='15056'>0.21006E+02</wgt>
<wgt id='15057'>0.20984E+02</wgt>
<wgt id='15058'>0.20971E+02</wgt>
<wgt id='15059'>0.20977E+02</wgt>
<wgt id='15060'>0.20979E+02</wgt>
<wgt id='15061'>0.20989E+02</wgt>
<wgt id='15062'>0.20989E+02</wgt>
<wgt id='15063'>0.20995E+02</wgt>
<wgt id='15064'>0.20981E+02</wgt>
<wgt id='15065'>0.20985E+02</wgt>
<wgt id='15066'>0.20987E+02</wgt>
<wgt id='15067'>0.20992E+02</wgt>
<wgt id='15068'>0.20992E+02</wgt>
<wgt id='15069'>0.20997E+02</wgt>
<wgt id='15070'>0.20983E+02</wgt>
<wgt id='15071'>0.20998E+02</wgt>
<wgt id='15072'>0.20998E+02</wgt>
<wgt id='15073'>0.20980E+02</wgt>
<wgt id='15074'>0.20989E+02</wgt>
<wgt id='15075'>0.20984E+02</wgt>
<wgt id='15076'>0.20984E+02</wgt>
<wgt id='15077'>0.20988E+02</wgt>
<wgt id='15078'>0.20987E+02</wgt>
<wgt id='15079'>0.20982E+02</wgt>
<wgt id='15080'>0.20999E+02</wgt>
<wgt id='15081'>0.20984E+02</wgt>
<wgt id='15082'>0.20990E+02</wgt>
<wgt id='15083'>0.20979E+02</wgt>
<wgt id='15084'>0.20980E+02</wgt>
<wgt id='15085'>0.20980E+02</wgt>
<wgt id='15086'>0.20988E+02</wgt>
<wgt id='15087'>0.20973E+02</wgt>
<wgt id='15088'>0.20981E+02</wgt>
<wgt id='15089'>0.20981E+02</wgt>
<wgt id='15090'>0.20989E+02</wgt>
<wgt id='15091'>0.20983E+02</wgt>
<wgt id='15092'>0.20985E+02</wgt>
<wgt id='15093'>0.20982E+02</wgt>
<wgt id='15094'>0.20984E+02</wgt>
<wgt id='15095'>0.20988E+02</wgt>
<wgt id='15096'>0.20982E+02</wgt>
<wgt id='15097'>0.20987E+02</wgt>
<wgt id='15098'>0.20985E+02</wgt>
<wgt id='15099'>0.20981E+02</wgt>
<wgt id='15100'>0.20985E+02</wgt>
<wgt id='15101'>0.20985E+02</wgt>
<wgt id='15102'>0.20984E+02</wgt>
<wgt id='15103'>0.20986E+02</wgt>
<wgt id='15104'>0.20986E+02</wgt>
<wgt id='15105'>0.20986E+02</wgt>
<wgt id='15106'>0.20986E+02</wgt>
<wgt id='15107'>0.20984E+02</wgt>
<wgt id='1500'>0.22143E+02</wgt>
<wgt id='1501'>0.20206E+02</wgt>
<wgt id='1502'>0.22315E+02</wgt>
<wgt id='1503'>0.21993E+02</wgt>
<wgt id='1504'>0.21878E+02</wgt>
<wgt id='1505'>0.19416E+02</wgt>
<wgt id='1506'>0.22153E+02</wgt>
<wgt id='1507'>0.22518E+02</wgt>
<wgt id='1508'>0.21966E+02</wgt>
<wgt id='1509'>0.22118E+02</wgt>
<wgt id='1510'>0.21544E+02</wgt>
<wgt id='1511'>0.21878E+02</wgt>
<wgt id='1512'>0.22529E+02</wgt>
<wgt id='1513'>0.22517E+02</wgt>
<wgt id='1514'>0.21544E+02</wgt>
<wgt id='1515'>0.22133E+02</wgt>
<wgt id='1516'>0.22565E+02</wgt>
<wgt id='1517'>0.21764E+02</wgt>
<wgt id='1518'>0.21918E+02</wgt>
<wgt id='1519'>0.22350E+02</wgt>
<wgt id='1520'>0.22405E+02</wgt>
<wgt id='1521'>0.22259E+02</wgt>
<wgt id='1522'>0.22020E+02</wgt>
<wgt id='1523'>0.23880E+02</wgt>
<wgt id='1524'>0.21922E+02</wgt>
<wgt id='1525'>0.22494E+02</wgt>
<wgt id='1526'>0.21681E+02</wgt>
<wgt id='1527'>0.21956E+02</wgt>
<wgt id='1528'>0.22010E+02</wgt>
<wgt id='1529'>0.21825E+02</wgt>
<wgt id='1530'>0.22561E+02</wgt>
<wgt id='1531'>0.22047E+02</wgt>
<wgt id='1532'>0.21543E+02</wgt>
<wgt id='1533'>0.22752E+02</wgt>
<wgt id='1534'>0.22315E+02</wgt>
<wgt id='1535'>0.22850E+02</wgt>
<wgt id='1536'>0.22849E+02</wgt>
<wgt id='1537'>0.22359E+02</wgt>
<wgt id='1538'>0.21842E+02</wgt>
<wgt id='1539'>0.21268E+02</wgt>
<wgt id='1540'>0.22487E+02</wgt>
<wgt id='1541'>0.22031E+02</wgt>
<wgt id='1542'>0.22572E+02</wgt>
<wgt id='1543'>0.22416E+02</wgt>
<wgt id='1544'>0.21964E+02</wgt>
<wgt id='1545'>0.22629E+02</wgt>
<wgt id='1546'>0.22261E+02</wgt>
<wgt id='1547'>0.21762E+02</wgt>
<wgt id='1548'>0.21692E+02</wgt>
<wgt id='1549'>0.22420E+02</wgt>
<wgt id='1550'>0.22244E+02</wgt>
<wgt id='1551'>0.22159E+02</wgt>
<wgt id='1552'>0.22112E+02</wgt>
<wgt id='1553'>0.22556E+02</wgt>
<wgt id='1554'>0.22135E+02</wgt>
<wgt id='1555'>0.22233E+02</wgt>
<wgt id='1556'>0.21506E+02</wgt>
<wgt id='1557'>0.23110E+02</wgt>
<wgt id='1558'>0.21976E+02</wgt>
<wgt id='1559'>0.22428E+02</wgt>
<wgt id='1560'>0.22070E+02</wgt>
<wgt id='1561'>0.22425E+02</wgt>
<wgt id='1562'>0.22190E+02</wgt>
<wgt id='1563'>0.22584E+02</wgt>
<wgt id='1564'>0.21895E+02</wgt>
<wgt id='1565'>0.22482E+02</wgt>
<wgt id='1566'>0.22220E+02</wgt>
<wgt id='1567'>0.23182E+02</wgt>
<wgt id='1568'>0.21848E+02</wgt>
<wgt id='1569'>0.21634E+02</wgt>
<wgt id='1570'>0.22236E+02</wgt>
<wgt id='1571'>0.22758E+02</wgt>
<wgt id='1572'>0.21937E+02</wgt>
<wgt id='1573'>0.20420E+02</wgt>
<wgt id='1574'>0.22356E+02</wgt>
<wgt id='1575'>0.21914E+02</wgt>
<wgt id='1576'>0.21539E+02</wgt>
<wgt id='1577'>0.22328E+02</wgt>
<wgt id='1578'>0.23039E+02</wgt>
<wgt id='1579'>0.22047E+02</wgt>
<wgt id='1580'>0.22336E+02</wgt>
<wgt id='1581'>0.22287E+02</wgt>
<wgt id='1582'>0.21888E+02</wgt>
<wgt id='1583'>0.22152E+02</wgt>
<wgt id='1584'>0.22244E+02</wgt>
<wgt id='1585'>0.21501E+02</wgt>
<wgt id='1586'>0.22084E+02</wgt>
<wgt id='1587'>0.22095E+02</wgt>
<wgt id='1588'>0.22196E+02</wgt>
<wgt id='1589'>0.22554E+02</wgt>
<wgt id='1590'>0.22057E+02</wgt>
<wgt id='1591'>0.21431E+02</wgt>
<wgt id='1592'>0.22773E+02</wgt>
<wgt id='1593'>0.21945E+02</wgt>
<wgt id='1594'>0.22715E+02</wgt>
<wgt id='1595'>0.21770E+02</wgt>
<wgt id='1596'>0.22487E+02</wgt>
<wgt id='1597'>0.22284E+02</wgt>
<wgt id='1598'>0.23149E+02</wgt>
<wgt id='1599'>0.22779E+02</wgt>
<wgt id='1600'>0.21981E+02</wgt>
<wgt id='1601'>0.21781E+02</wgt>
<wgt id='1602'>0.22298E+02</wgt>
<wgt id='1700'>0.21318E+02</wgt>
<wgt id='1800'>0.26003E+02</wgt>
<wgt id='1850'>0.31114E+02</wgt>
<wgt id='1900'>0.25425E+02</wgt>
<wgt id='1950'>0.30034E+02</wgt>
</rwgt>
</event>
<event>
      4   9999  2.16956E+01  2.91977E+01 -1.00000E+00  1.51394E-01
      21    -1     0     0   511   501  0.000000000E+00  0.000000000E+00  2.490588566E+02  2.490588566E+02  0.000000000E+00  0.00000E+00  9.000E+00
      21    -1     0     0   501   502  0.000000000E+00  0.000000000E+00 -2.812699805E+01  2.812699805E+01  0.000000000E+00  0.00000E+00  9.000E+00
      25     1     1     2     0     0 -1.236927669E+01 -2.644818872E+01  1.343574514E+02  1.858204692E+02  1.249992653E+02  0.00000E+00  9.000E+00
      21     1     1     2   511   502  1.236927669E+01  2.644818872E+01  8.657440710E+01  9.136538544E+01  1.348699152E-06  0.00000E+00  9.000E+00
#rwgt            1           1   20.809741335130795                1        6966           0
<rwgt>
<wgt id='1001'>0.21696E+02</wgt>
<wgt id='1002'>0.21309E+02</wgt>
<wgt id='1003'>0.21842E+02</wgt>
<wgt id='1004'>0.19591E+02</wgt>
<wgt id='1005'>0.19437E+02</wgt>
<wgt id='1006'>0.19504E+02</wgt>
<wgt id='1007'>0.23815E+02</wgt>
<wgt id='1008'>0.23035E+02</wgt>
<wgt id='1009'>0.24372E+02</wgt>
<wgt id='2000'>0.21696E+02</wgt>
<wgt id='2001'>0.21663E+02</wgt>
<wgt id='2002'>0.21782E+02</wgt>
<wgt id='2003'>0.21771E+02</wgt>
<wgt id='2004'>0.21713E+02</wgt>
<wgt id='2005'>0.21648E+02</wgt>
<wgt id='2006'>0.21642E+02</wgt>
<wgt id='2007'>0.21608E+02</wgt>
<wgt id='2008'>0.21663E+02</wgt>
<wgt id='2009'>0.21711E+02</wgt>
<wgt id='2010'>0.21681E+02</wgt>
<wgt id='2011'>0.21791E+02</wgt>
<wgt id='2012'>0.21807E+02</wgt>
<wgt id='2013'>0.21864E+02</wgt>
<wgt id='2014'>0.21784E+02</wgt>
<wgt id='2015'>0.21752E+02</wgt>
<wgt id='2016'>0.21665E+02</wgt>
<wgt id='2017'>0.21696E+02</wgt>
<wgt id='2018'>0.21780E+02</wgt>
<wgt id='2019'>0.21684E+02</wgt>
<wgt id='2020'>0.21789E+02</wgt>
<wgt id='2021'>0.21648E+02</wgt>
<wgt id='2022'>0.21762E+02</wgt>
<wgt id='2023'>0.21735E+02</wgt>
<wgt id='2024'>0.21711E+02</wgt>
<wgt id='2025'>0.21763E+02</wgt>
<wgt id='2026'>0.21729E+02</wgt>
<wgt id='2027'>0.21677E+02</wgt>
<wgt id='2028'>0.21674E+02</wgt>
<wgt id='2029'>0.21700E+02</wgt>
<wgt id='2030'>0.21708E+02</wgt>
<wgt id='2031'>0.21702E+02</wgt>
<wgt id='2032'>0.21703E+02</wgt>
<wgt id='2033'>0.21702E+02</wgt>
<wgt id='2034'>0.21685E+02</wgt>
<wgt id='2035'>0.21693E+02</wgt>
<wgt id='2036'>0.21690E+02</wgt>
<wgt id='2037'>0.21694E+02</wgt>
<wgt id='2038'>0.21698E+02</wgt>
<wgt id='2039'>0.21702E+02</wgt>
<wgt id='2040'>0.21688E+02</wgt>
<wgt id='2041'>0.21685E+02</wgt>
<wgt id='2042'>0.21683E+02</wgt>
<wgt id='2043'>0.21699E+02</wgt>
<wgt id='2044'>0.21701E+02</wgt>
<wgt id='2045'>0.21694E+02</wgt>
<wgt id='2046'>0.21707E+02</wgt>
<wgt id='2047'>0.21697E+02</wgt>
<wgt id='2048'>0.21695E+02</wgt>
<wgt id='2049'>0.21697E+02</wgt>
<wgt id='2050'>0.21703E+02</wgt>
<wgt id='2051'>0.21696E+02</wgt>
<wgt id='2052'>0.21690E+02</wgt>
<wgt id='2053'>0.21697E+02</wgt>
<wgt id='2054'>0.21700E+02</wgt>
<wgt id='2055'>0.21695E+02</wgt>
<wgt id='2056'>0.21697E+02</wgt>
<wgt id='2057'>0.21695E+02</wgt>
<wgt id='2058'>0.21697E+02</wgt>
<wgt id='2059'>0.21693E+02</wgt>
<wgt id='2060'>0.21696E+02</wgt>
<wgt id='2061'>0.21693E+02</wgt>
<wgt id='2062'>0.21696E+02</wgt>
<wgt id='2063'>0.21695E+02</wgt>
<wgt id='2064'>0.21692E+02</wgt>
<wgt id='2065'>0.21699E+02</wgt>
<wgt id='2066'>0.21694E+02</wgt>
<wgt id='2067'>0.21696E+02</wgt>
<wgt id='2068'>0.21699E+02</wgt>
<wgt id='2069'>0.21695E+02</wgt>
<wgt id='2070'>0.21694E+02</wgt>
<wgt id='2071'>0.21691E+02</wgt>
<wgt id='2072'>0.21697E+02</wgt>
<wgt id='2073'>0.21697E+02</wgt>
<wgt id='2074'>0.21695E+02</wgt>
<wgt id='2075'>0.21694E+02</wgt>
<wgt id='2076'>0.21697E+02</wgt>
<wgt id='2077'>0.21693E+02</wgt>
<wgt id='2078'>0.21695E+02</wgt>
<wgt id='2079'>0.21697E+02</wgt>
<wgt id='2080'>0.21695E+02</wgt>
<wgt id='2081'>0.21697E+02</wgt>
<wgt id='2082'>0.21696E+02</wgt>
<wgt id='2083'>0.21696E+02</wgt>
<wgt id='2084'>0.21695E+02</wgt>
<wgt id='2085'>0.21695E+02</wgt>
<wgt id='2086'>0.21694E+02</wgt>
<wgt id='2087'>0.21695E+02</wgt>
<wgt id='2088'>0.21696E+02</wgt>
<wgt id='2089'>0.21695E+02</wgt>
<wgt id='2090'>0.21695E+02</wgt>
<wgt id='2091'>0.21696E+02</wgt>
<wgt id='2092'>0.21695E+02</wgt>
<wgt id='2093'>0.21695E+02</wgt>
<wgt id='2094'>0.21696E+02</wgt>
<wgt id='2095'>0.21697E+02</wgt>
<wgt id='2096'>0.21696E+02</wgt>
<wgt id='2097'>0.21696E+02</wgt>
<wgt id='2098'>0.21696E+02</wgt>
<wgt id='2099'>0.21696E+02</wgt>
<wgt id='2100'>0.21696E+02</wgt>
<wgt id='2101'>0.21231E+02</wgt>
<wgt id='2102'>0.22078E+02</wgt>
<wgt id='2104'>0.19616E+02</wgt>
<wgt id='2105'>0.19974E+02</wgt>
<wgt id='2106'>0.20421E+02</wgt>
<wgt id='2107'>0.20890E+02</wgt>
<wgt id='2108'>0.21525E+02</wgt>
<wgt id='2109'>0.21950E+02</wgt>
<wgt id='2110'>0.22437E+02</wgt>
<wgt id='2111'>0.22840E+02</wgt>
<wgt id='3000'>0.22586E+02</wgt>
<wgt id='3001'>0.22665E+02</wgt>
<wgt id='3002'>0.22500E+02</wgt>
<wgt id='3003'>0.22669E+02</wgt>
<wgt id='3004'>0.22629E+02</wgt>
<wgt id='3005'>0.22691E+02</wgt>
<wgt id='3006'>0.22617E+02</wgt>
<wgt id='3007'>0.22633E+02</wgt>
<wgt id='3008'>0.22524E+02</wgt>
<wgt id='3009'>0.22555E+02</wgt>
<wgt id='3010'>0.22505E+02</wgt>
<wgt id='3011'>0.22633E+02</wgt>
<wgt id='3012'>0.22744E+02</wgt>
<wgt id='3013'>0.22425E+02</wgt>
<wgt id='3014'>0.22673E+02</wgt>
<wgt id='3015'>0.22644E+02</wgt>
<wgt id='3016'>0.22603E+02</wgt>
<wgt id='3017'>0.22683E+02</wgt>
<wgt id='3018'>0.22633E+02</wgt>
<wgt id='3019'>0.22487E+02</wgt>
<wgt id='3020'>0.22529E+02</wgt>
<wgt id='3021'>0.22494E+02</wgt>
<wgt id='3022'>0.22580E+02</wgt>
<wgt id='3023'>0.22536E+02</wgt>
<wgt id='3024'>0.22540E+02</wgt>
<wgt id='3025'>0.22581E+02</wgt>
<wgt id='3026'>0.22623E+02</wgt>
<wgt id='3027'>0.22592E+02</wgt>
<wgt id='3028'>0.22534E+02</wgt>
<wgt id='3029'>0.22592E+02</wgt>
<wgt id='3030'>0.22591E+02</wgt>
<wgt id='3031'>0.22586E+02</wgt>
<wgt id='3032'>0.22595E+02</wgt>
<wgt id='3033'>0.22587E+02</wgt>
<wgt id='3034'>0.22598E+02</wgt>
<wgt id='3035'>0.22581E+02</wgt>
<wgt id='3036'>0.22587E+02</wgt>
<wgt id='3037'>0.22588E+02</wgt>
<wgt id='3038'>0.22585E+02</wgt>
<wgt id='3039'>0.22597E+02</wgt>
<wgt id='3040'>0.22587E+02</wgt>
<wgt id='3041'>0.22580E+02</wgt>
<wgt id='3042'>0.22575E+02</wgt>
<wgt id='3043'>0.22575E+02</wgt>
<wgt id='3044'>0.22595E+02</wgt>
<wgt id='3045'>0.22593E+02</wgt>
<wgt id='3046'>0.22586E+02</wgt>
<wgt id='3047'>0.22583E+02</wgt>
<wgt id='3048'>0.22590E+02</wgt>
<wgt id='3049'>0.22581E+02</wgt>
<wgt id='3050'>0.22584E+02</wgt>
<wgt id='3051'>0.22596E+02</wgt>
<wgt id='3052'>0.22584E+02</wgt>
<wgt id='3053'>0.22582E+02</wgt>
<wgt id='3054'>0.22583E+02</wgt>
<wgt id='3055'>0.22591E+02</wgt>
<wgt id='3056'>0.22589E+02</wgt>
<wgt id='3057'>0.22585E+02</wgt>
<wgt id='3058'>0.22581E+02</wgt>
<wgt id='3059'>0.22587E+02</wgt>
<wgt id='3060'>0.22587E+02</wgt>
<wgt id='3061'>0.22592E+02</wgt>
<wgt id='3062'>0.22590E+02</wgt>
<wgt id='3063'>0.22588E+02</wgt>
<wgt id='3064'>0.22585E+02</wgt>
<wgt id='3065'>0.22584E+02</wgt>
<wgt id='3066'>0.22588E+02</wgt>
<wgt id='3067'>0.22581E+02</wgt>
<wgt id='3068'>0.22587E+02</wgt>
<wgt id='3069'>0.22583E+02</wgt>
<wgt id='3070'>0.22583E+02</wgt>
<wgt id='3071'>0.22584E+02</wgt>
<wgt id='3072'>0.22588E+02</wgt>
<wgt id='3073'>0.22581E+02</wgt>
<wgt id='3074'>0.22589E+02</wgt>
<wgt id='3075'>0.22584E+02</wgt>
<wgt id='3076'>0.22587E+02</wgt>
<wgt id='3077'>0.22588E+02</wgt>
<wgt id='3078'>0.22587E+02</wgt>
<wgt id='3079'>0.22587E+02</wgt>
<wgt id='3080'>0.22583E+02</wgt>
<wgt id='3081'>0.22585E+02</wgt>
<wgt id='3082'>0.22584E+02</wgt>
<wgt id='3083'>0.22586E+02</wgt>
<wgt id='3084'>0.22584E+02</wgt>
<wgt id='3085'>0.22585E+02</wgt>
<wgt id='3086'>0.22583E+02</wgt>
<wgt id='3087'>0.22584E+02</wgt>
<wgt id='3088'>0.22586E+02</wgt>
<wgt id='3089'>0.22586E+02</wgt>
<wgt id='3090'>0.22586E+02</wgt>
<wgt id='3091'>0.22586E+02</wgt>
<wgt id='3092'>0.22588E+02</wgt>
<wgt id='3093'>0.22586E+02</wgt>
<wgt id='3094'>0.22587E+02</wgt>
<wgt id='3095'>0.22586E+02</wgt>
<wgt id='3096'>0.22585E+02</wgt>
<wgt id='3097'>0.22585E+02</wgt>
<wgt id='3098'>0.22586E+02</wgt>
<wgt id='3099'>0.22586E+02</wgt>
<wgt id='3100'>0.22586E+02</wgt>
<wgt id='3101'>0.22129E+02</wgt>
<wgt id='3102'>0.23126E+02</wgt>
<wgt id='5000'>0.20968E+02</wgt>
<wgt id='5001'>0.20888E+02</wgt>
<wgt id='5002'>0.20933E+02</wgt>
<wgt id='5003'>0.20832E+02</wgt>
<wgt id='5004'>0.21008E+02</wgt>
<wgt id='5005'>0.20467E+02</wgt>
<wgt id='5006'>0.21274E+02</wgt>
<wgt id='5007'>0.21067E+02</wgt>
<wgt id='5008'>0.20703E+02</wgt>
<wgt id='5009'>0.21235E+02</wgt>
<wgt id='5010'>0.20820E+02</wgt>
<wgt id='5011'>0.20924E+02</wgt>
<wgt id='5012'>0.20962E+02</wgt>
<wgt id='5013'>0.20483E+02</wgt>
<wgt id='5014'>0.21025E+02</wgt>
<wgt id='5015'>0.21140E+02</wgt>
<wgt id='5016'>0.20448E+02</wgt>
<wgt id='5017'>0.20990E+02</wgt>
<wgt id='5018'>0.20942E+02</wgt>
<wgt id='5019'>0.20922E+02</wgt>
<wgt id='5020'>0.21002E+02</wgt>
<wgt id='5021'>0.21043E+02</wgt>
<wgt id='5022'>0.20919E+02</wgt>
<wgt id='5023'>0.20912E+02</wgt>
<wgt id='5024'>0.21022E+02</wgt>
<wgt id='5025'>0.20943E+02</wgt>
<wgt id='5026'>0.20987E+02</wgt>
<wgt id='5027'>0.21200E+02</wgt>
<wgt id='5028'>0.20576E+02</wgt>
<wgt id='5029'>0.20535E+02</wgt>
<wgt id='5030'>0.21228E+02</wgt>
<wgt id='5031'>0.20713E+02</wgt>
<wgt id='5032'>0.21337E+02</wgt>
<wgt id='5033'>0.20811E+02</wgt>
<wgt id='5034'>0.21099E+02</wgt>
<wgt id='5035'>0.20658E+02</wgt>
<wgt id='5036'>0.21217E+02</wgt>
<wgt id='5037'>0.20908E+02</wgt>
<wgt id='5038'>0.21021E+02</wgt>
<wgt id='5039'>0.21351E+02</wgt>
<wgt id='5040'>0.20772E+02</wgt>
<wgt id='5041'>0.20737E+02</wgt>
<wgt id='5042'>0.20999E+02</wgt>
<wgt id='5043'>0.21167E+02</wgt>
<wgt id='5044'>0.20389E+02</wgt>
<wgt id='5045'>0.21707E+02</wgt>
<wgt id='5046'>0.20728E+02</wgt>
<wgt id='5047'>0.21185E+02</wgt>
<wgt id='5048'>0.21026E+02</wgt>
<wgt id='5049'>0.20987E+02</wgt>
<wgt id='5050'>0.20997E+02</wgt>
<wgt id='5051'>0.21021E+02</wgt>
<wgt id='5052'>0.20952E+02</wgt>
<wgt id='5053'>0.20864E+02</wgt>
<wgt id='5054'>0.21455E+02</wgt>
<wgt id='5055'>0.20834E+02</wgt>
<wgt id='5056'>0.21116E+02</wgt>
<wgt id='5060'>0.20552E+02</wgt>
<wgt id='5070'>0.21309E+02</wgt>
<wgt id='4000'>0.22018E+02</wgt>
<wgt id='4001'>0.22040E+02</wgt>
<wgt id='4002'>0.22077E+02</wgt>
<wgt id='4003'>0.22548E+02</wgt>
<wgt id='4004'>0.21766E+02</wgt>
<wgt id='4005'>0.22081E+02</wgt>
<wgt id='4006'>0.21959E+02</wgt>
<wgt id='4007'>0.22320E+02</wgt>
<wgt id='4008'>0.21879E+02</wgt>
<wgt id='4009'>0.21544E+02</wgt>
<wgt id='4010'>0.22334E+02</wgt>
<wgt id='4011'>0.22400E+02</wgt>
<wgt id='4012'>0.21796E+02</wgt>
<wgt id='4013'>0.21164E+02</wgt>
<wgt id='4014'>0.22508E+02</wgt>
<wgt id='4015'>0.22240E+02</wgt>
<wgt id='4016'>0.21872E+02</wgt>
<wgt id='4017'>0.21783E+02</wgt>
<wgt id='4018'>0.22297E+02</wgt>
<wgt id='4019'>0.22327E+02</wgt>
<wgt id='4020'>0.21673E+02</wgt>
<wgt id='4021'>0.22082E+02</wgt>
<wgt id='4022'>0.21879E+02</wgt>
<wgt id='4023'>0.21895E+02</wgt>
<wgt id='4024'>0.22127E+02</wgt>
<wgt id='4025'>0.21724E+02</wgt>
<wgt id='4026'>0.22285E+02</wgt>
<wgt id='4027'>0.21937E+02</wgt>
<wgt id='4028'>0.22127E+02</wgt>
<wgt id='4029'>0.21836E+02</wgt>
<wgt id='4030'>0.22081E+02</wgt>
<wgt id='4031'>0.22058E+02</wgt>
<wgt id='4032'>0.21965E+02</wgt>
<wgt id='4033'>0.21989E+02</wgt>
<wgt id='4034'>0.22075E+02</wgt>
<wgt id='4035'>0.22355E+02</wgt>
<wgt id='4036'>0.21693E+02</wgt>
<wgt id='4037'>0.22217E+02</wgt>
<wgt id='4038'>0.21690E+02</wgt>
<wgt id='4039'>0.22012E+02</wgt>
<wgt id='4040'>0.21983E+02</wgt>
<wgt id='4041'>0.22213E+02</wgt>
<wgt id='4042'>0.21835E+02</wgt>
<wgt id='4043'>0.22265E+02</wgt>
<wgt id='4044'>0.21775E+02</wgt>
<wgt id='4045'>0.21689E+02</wgt>
<wgt id='4046'>0.21936E+02</wgt>
<wgt id='4047'>0.21728E+02</wgt>
<wgt id='4048'>0.22208E+02</wgt>
<wgt id='4049'>0.22063E+02</wgt>
<wgt id='4050'>0.21589E+02</wgt>
<wgt id='4051'>0.21971E+02</wgt>
<wgt id='4052'>0.21967E+02</wgt>
<wgt id='4053'>0.21463E+02</wgt>
<wgt id='4054'>0.22172E+02</wgt>
<wgt id='4055'>0.21836E+02</wgt>
<wgt id='4056'>0.22213E+02</wgt>
<wgt id='4060'>0.21505E+02</wgt>
<wgt id='4070'>0.22476E+02</wgt>
<wgt id='4080'>0.21441E+02</wgt>
<wgt id='6000'>0.22469E+02</wgt>
<wgt id='6001'>0.22481E+02</wgt>
<wgt id='6002'>0.22456E+02</wgt>
<wgt id='6003'>0.22479E+02</wgt>
<wgt id='6004'>0.22462E+02</wgt>
<wgt id='6005'>0.22532E+02</wgt>
<wgt id='6006'>0.22409E+02</wgt>
<wgt id='6007'>0.22371E+02</wgt>
<wgt id='6008'>0.22580E+02</wgt>
<wgt id='6009'>0.22544E+02</wgt>
<wgt id='6010'>0.22396E+02</wgt>
<wgt id='6011'>0.22518E+02</wgt>
<wgt id='6012'>0.22362E+02</wgt>
<wgt id='6013'>0.22443E+02</wgt>
<wgt id='6014'>0.22514E+02</wgt>
<wgt id='6015'>0.22398E+02</wgt>
<wgt id='6016'>0.22509E+02</wgt>
<wgt id='6017'>0.22336E+02</wgt>
<wgt id='6018'>0.22626E+02</wgt>
<wgt id='6019'>0.22500E+02</wgt>
<wgt id='6020'>0.22442E+02</wgt>
<wgt id='6021'>0.22417E+02</wgt>
<wgt id='6022'>0.22539E+02</wgt>
<wgt id='6023'>0.22305E+02</wgt>
<wgt id='6024'>0.22583E+02</wgt>
<wgt id='6025'>0.22210E+02</wgt>
<wgt id='6026'>0.22691E+02</wgt>
<wgt id='6027'>0.22530E+02</wgt>
<wgt id='6028'>0.22469E+02</wgt>
<wgt id='6029'>0.22606E+02</wgt>
<wgt id='6030'>0.22311E+02</wgt>
<wgt id='6031'>0.22489E+02</wgt>
<wgt id='6032'>0.22438E+02</wgt>
<wgt id='6033'>0.22514E+02</wgt>
<wgt id='6034'>0.22421E+02</wgt>
<wgt id='6035'>0.22455E+02</wgt>
<wgt id='6036'>0.22542E+02</wgt>
<wgt id='6037'>0.22511E+02</wgt>
<wgt id='6038'>0.22464E+02</wgt>
<wgt id='6039'>0.22446E+02</wgt>
<wgt id='6040'>0.22493E+02</wgt>
<wgt id='6041'>0.22422E+02</wgt>
<wgt id='6042'>0.22527E+02</wgt>
<wgt id='6043'>0.22767E+02</wgt>
<wgt id='6044'>0.22326E+02</wgt>
<wgt id='6045'>0.22450E+02</wgt>
<wgt id='6046'>0.22517E+02</wgt>
<wgt id='6047'>0.22457E+02</wgt>
<wgt id='6048'>0.22277E+02</wgt>
<wgt id='6049'>0.22467E+02</wgt>
<wgt id='6050'>0.22455E+02</wgt>
<wgt id='7000'>0.21154E+02</wgt>
<wgt id='7001'>0.21148E+02</wgt>
<wgt id='7002'>0.21161E+02</wgt>
<wgt id='7003'>0.21222E+02</wgt>
<wgt id='7004'>0.21085E+02</wgt>
<wgt id='7005'>0.21195E+02</wgt>
<wgt id='7006'>0.21137E+02</wgt>
<wgt id='7007'>0.21067E+02</wgt>
<wgt id='7008'>0.21238E+02</wgt>
<wgt id='7009'>0.21190E+02</wgt>
<wgt id='7010'>0.21117E+02</wgt>
<wgt id='7011'>0.20947E+02</wgt>
<wgt id='7012'>0.21242E+02</wgt>
<wgt id='7013'>0.21153E+02</wgt>
<wgt id='7014'>0.21152E+02</wgt>
<wgt id='7015'>0.21092E+02</wgt>
<wgt id='7016'>0.21219E+02</wgt>
<wgt id='7017'>0.21096E+02</wgt>
<wgt id='7018'>0.21183E+02</wgt>
<wgt id='7019'>0.21127E+02</wgt>
<wgt id='7020'>0.21188E+02</wgt>
<wgt id='7021'>0.21141E+02</wgt>
<wgt id='7022'>0.21161E+02</wgt>
<wgt id='7023'>0.21399E+02</wgt>
<wgt id='7024'>0.20915E+02</wgt>
<wgt id='7025'>0.21249E+02</wgt>
<wgt id='7026'>0.20920E+02</wgt>
<wgt id='7027'>0.21248E+02</wgt>
<wgt id='7028'>0.21110E+02</wgt>
<wgt id='7029'>0.21058E+02</wgt>
<wgt id='7030'>0.21402E+02</wgt>
<wgt id='7031'>0.21148E+02</wgt>
<wgt id='7032'>0.21167E+02</wgt>
<wgt id='7033'>0.21125E+02</wgt>
<wgt id='7034'>0.21218E+02</wgt>
<wgt id='7035'>0.21205E+02</wgt>
<wgt id='7036'>0.21140E+02</wgt>
<wgt id='7037'>0.21162E+02</wgt>
<wgt id='7038'>0.21156E+02</wgt>
<wgt id='7039'>0.21129E+02</wgt>
<wgt id='7040'>0.21170E+02</wgt>
<wgt id='7041'>0.21108E+02</wgt>
<wgt id='7042'>0.21184E+02</wgt>
<wgt id='7043'>0.21172E+02</wgt>
<wgt id='7044'>0.21043E+02</wgt>
<wgt id='7045'>0.20963E+02</wgt>
<wgt id='7046'>0.21208E+02</wgt>
<wgt id='7047'>0.21174E+02</wgt>
<wgt id='7048'>0.21136E+02</wgt>
<wgt id='7049'>0.21122E+02</wgt>
<wgt id='7050'>0.21113E+02</wgt>
<wgt id='7060'>0.31367E+02</wgt>
<wgt id='8000'>0.21375E+02</wgt>
<wgt id='8001'>0.21369E+02</wgt>
<wgt id='8002'>0.21381E+02</wgt>
<wgt id='8003'>0.21377E+02</wgt>
<wgt id='8004'>0.21374E+02</wgt>
<wgt id='8005'>0.21321E+02</wgt>
<wgt id='8006'>0.21362E+02</wgt>
<wgt id='8007'>0.21348E+02</wgt>
<wgt id='8008'>0.21415E+02</wgt>
<wgt id='8009'>0.21458E+02</wgt>
<wgt id='8010'>0.21374E+02</wgt>
<wgt id='8011'>0.21363E+02</wgt>
<wgt id='8012'>0.21347E+02</wgt>
<wgt id='8013'>0.21370E+02</wgt>
<wgt id='8014'>0.21365E+02</wgt>
<wgt id='8015'>0.21359E+02</wgt>
<wgt id='8016'>0.21381E+02</wgt>
<wgt id='8017'>0.21379E+02</wgt>
<wgt id='8018'>0.21373E+02</wgt>
<wgt id='8019'>0.21416E+02</wgt>
<wgt id='8020'>0.21298E+02</wgt>
<wgt id='8021'>0.21378E+02</wgt>
<wgt id='8022'>0.21236E+02</wgt>
<wgt id='8023'>0.21400E+02</wgt>
<wgt id='8024'>0.21423E+02</wgt>
<wgt id='8025'>0.21454E+02</wgt>
<wgt id='8026'>0.21421E+02</wgt>
<wgt id='8027'>0.21336E+02</wgt>
<wgt id='8028'>0.21397E+02</wgt>
<wgt id='8029'>0.21206E+02</wgt>
<wgt id='8500'>0.22190E+02</wgt>
<wgt id='8501'>0.22141E+02</wgt>
<wgt id='8502'>0.22403E+02</wgt>
<wgt id='8503'>0.22336E+02</wgt>
<wgt id='8504'>0.22139E+02</wgt>
<wgt id='8505'>0.22094E+02</wgt>
<wgt id='8506'>0.22141E+02</wgt>
<wgt id='8507'>0.22295E+02</wgt>
<wgt id='8508'>0.22460E+02</wgt>
<wgt id='8509'>0.22078E+02</wgt>
<wgt id='8510'>0.22540E+02</wgt>
<wgt id='8511'>0.22205E+02</wgt>
<wgt id='8512'>0.21914E+02</wgt>
<wgt id='8513'>0.22233E+02</wgt>
<wgt id='8514'>0.22035E+02</wgt>
<wgt id='8515'>0.22210E+02</wgt>
<wgt id='8516'>0.22249E+02</wgt>
<wgt id='8517'>0.22120E+02</wgt>
<wgt id='8518'>0.22143E+02</wgt>
<wgt id='8519'>0.22151E+02</wgt>
<wgt id='8520'>0.22198E+02</wgt>
<wgt id='8521'>0.22079E+02</wgt>
<wgt id='8522'>0.22205E+02</wgt>
<wgt id='8523'>0.22145E+02</wgt>
<wgt id='8524'>0.22174E+02</wgt>
<wgt id='8525'>0.22167E+02</wgt>
<wgt id='8526'>0.22169E+02</wgt>
<wgt id='8527'>0.22199E+02</wgt>
<wgt id='8528'>0.22132E+02</wgt>
<wgt id='8529'>0.22172E+02</wgt>
<wgt id='8530'>0.22180E+02</wgt>
<wgt id='8531'>0.22182E+02</wgt>
<wgt id='8532'>0.22191E+02</wgt>
<wgt id='8533'>0.22150E+02</wgt>
<wgt id='8534'>0.22200E+02</wgt>
<wgt id='8535'>0.22237E+02</wgt>
<wgt id='8536'>0.22173E+02</wgt>
<wgt id='8537'>0.22199E+02</wgt>
<wgt id='8538'>0.22168E+02</wgt>
<wgt id='8539'>0.22194E+02</wgt>
<wgt id='8540'>0.22193E+02</wgt>
<wgt id='8541'>0.22200E+02</wgt>
<wgt id='8542'>0.22206E+02</wgt>
<wgt id='8543'>0.22171E+02</wgt>
<wgt id='8544'>0.22212E+02</wgt>
<wgt id='8545'>0.22207E+02</wgt>
<wgt id='8546'>0.22211E+02</wgt>
<wgt id='8547'>0.22173E+02</wgt>
<wgt id='8548'>0.22168E+02</wgt>
<wgt id='8549'>0.22191E+02</wgt>
<wgt id='8550'>0.22193E+02</wgt>
<wgt id='8551'>0.22170E+02</wgt>
<wgt id='8552'>0.22194E+02</wgt>
<wgt id='8553'>0.22181E+02</wgt>
<wgt id='8554'>0.22181E+02</wgt>
<wgt id='8555'>0.22192E+02</wgt>
<wgt id='8556'>0.22189E+02</wgt>
<wgt id='8557'>0.22185E+02</wgt>
<wgt id='8558'>0.22212E+02</wgt>
<wgt id='8559'>0.22179E+02</wgt>
<wgt id='8560'>0.22168E+02</wgt>
<wgt id='8561'>0.22187E+02</wgt>
<wgt id='8562'>0.22174E+02</wgt>
<wgt id='8563'>0.22191E+02</wgt>
<wgt id='8564'>0.22186E+02</wgt>
<wgt id='8565'>0.22189E+02</wgt>
<wgt id='8566'>0.22186E+02</wgt>
<wgt id='8567'>0.22189E+02</wgt>
<wgt id='8568'>0.22197E+02</wgt>
<wgt id='8569'>0.22195E+02</wgt>
<wgt id='8570'>0.22187E+02</wgt>
<wgt id='8571'>0.22181E+02</wgt>
<wgt id='8572'>0.22184E+02</wgt>
<wgt id='8573'>0.22180E+02</wgt>
<wgt id='8574'>0.22195E+02</wgt>
<wgt id='8575'>0.22188E+02</wgt>
<wgt id='8576'>0.22188E+02</wgt>
<wgt id='8577'>0.22188E+02</wgt>
<wgt id='8578'>0.22192E+02</wgt>
<wgt id='8579'>0.22202E+02</wgt>
<wgt id='8580'>0.22189E+02</wgt>
<wgt id='8581'>0.22193E+02</wgt>
<wgt id='8582'>0.22177E+02</wgt>
<wgt id='8583'>0.22199E+02</wgt>
<wgt id='8584'>0.22195E+02</wgt>
<wgt id='8585'>0.22194E+02</wgt>
<wgt id='8586'>0.22199E+02</wgt>
<wgt id='8587'>0.22188E+02</wgt>
<wgt id='8588'>0.22185E+02</wgt>
<wgt id='8589'>0.22190E+02</wgt>
<wgt id='8590'>0.22187E+02</wgt>
<wgt id='8591'>0.22187E+02</wgt>
<wgt id='8592'>0.22189E+02</wgt>
<wgt id='8593'>0.22182E+02</wgt>
<wgt id='8594'>0.22192E+02</wgt>
<wgt id='8595'>0.22192E+02</wgt>
<wgt id='8596'>0.22184E+02</wgt>
<wgt id='8597'>0.22193E+02</wgt>
<wgt id='8598'>0.22195E+02</wgt>
<wgt id='8599'>0.22193E+02</wgt>
<wgt id='8600'>0.22189E+02</wgt>
<wgt id='8601'>0.21834E+02</wgt>
<wgt id='8602'>0.22485E+02</wgt>
<wgt id='9000'>0.21140E+02</wgt>
<wgt id='9001'>0.21160E+02</wgt>
<wgt id='9002'>0.21253E+02</wgt>
<wgt id='9003'>0.20953E+02</wgt>
<wgt id='9004'>0.21094E+02</wgt>
<wgt id='9005'>0.21235E+02</wgt>
<wgt id='9006'>0.21078E+02</wgt>
<wgt id='9007'>0.21145E+02</wgt>
<wgt id='9008'>0.21177E+02</wgt>
<wgt id='9009'>0.21124E+02</wgt>
<wgt id='9010'>0.21082E+02</wgt>
<wgt id='9011'>0.21393E+02</wgt>
<wgt id='9012'>0.20910E+02</wgt>
<wgt id='9013'>0.20822E+02</wgt>
<wgt id='9014'>0.20907E+02</wgt>
<wgt id='9015'>0.21130E+02</wgt>
<wgt id='9016'>0.21301E+02</wgt>
<wgt id='9017'>0.21140E+02</wgt>
<wgt id='9018'>0.21105E+02</wgt>
<wgt id='9019'>0.21103E+02</wgt>
<wgt id='9020'>0.21227E+02</wgt>
<wgt id='9021'>0.21101E+02</wgt>
<wgt id='9022'>0.21168E+02</wgt>
<wgt id='9023'>0.21107E+02</wgt>
<wgt id='9024'>0.21117E+02</wgt>
<wgt id='9025'>0.21160E+02</wgt>
<wgt id='9026'>0.21139E+02</wgt>
<wgt id='9027'>0.21105E+02</wgt>
<wgt id='9028'>0.21159E+02</wgt>
<wgt id='9029'>0.21165E+02</wgt>
<wgt id='9030'>0.21139E+02</wgt>
<wgt id='9031'>0.21135E+02</wgt>
<wgt id='9032'>0.21160E+02</wgt>
<wgt id='9033'>0.21167E+02</wgt>
<wgt id='9034'>0.21129E+02</wgt>
<wgt id='9035'>0.21175E+02</wgt>
<wgt id='9036'>0.21139E+02</wgt>
<wgt id='9037'>0.21160E+02</wgt>
<wgt id='9038'>0.21141E+02</wgt>
<wgt id='9039'>0.21142E+02</wgt>
<wgt id='9040'>0.21116E+02</wgt>
<wgt id='9041'>0.21130E+02</wgt>
<wgt id='9042'>0.21135E+02</wgt>
<wgt id='9043'>0.21125E+02</wgt>
<wgt id='9044'>0.21147E+02</wgt>
<wgt id='9045'>0.21136E+02</wgt>
<wgt id='9046'>0.21112E+02</wgt>
<wgt id='9047'>0.21129E+02</wgt>
<wgt id='9048'>0.21148E+02</wgt>
<wgt id='9049'>0.21129E+02</wgt>
<wgt id='9050'>0.21145E+02</wgt>
<wgt id='9051'>0.21147E+02</wgt>
<wgt id='9052'>0.21145E+02</wgt>
<wgt id='9053'>0.21144E+02</wgt>
<wgt id='9054'>0.21130E+02</wgt>
<wgt id='9055'>0.21137E+02</wgt>
<wgt id='9056'>0.21159E+02</wgt>
<wgt id='9057'>0.21138E+02</wgt>
<wgt id='9058'>0.21126E+02</wgt>
<wgt id='9059'>0.21131E+02</wgt>
<wgt id='9060'>0.21134E+02</wgt>
<wgt id='9061'>0.21143E+02</wgt>
<wgt id='9062'>0.21144E+02</wgt>
<wgt id='9063'>0.21149E+02</wgt>
<wgt id='9064'>0.21136E+02</wgt>
<wgt id='9065'>0.21139E+02</wgt>
<wgt id='9066'>0.21141E+02</wgt>
<wgt id='9067'>0.21147E+02</wgt>
<wgt id='9068'>0.21146E+02</wgt>
<wgt id='9069'>0.21152E+02</wgt>
<wgt id='9070'>0.21138E+02</wgt>
<wgt id='9071'>0.21152E+02</wgt>
<wgt id='9072'>0.21152E+02</wgt>
<wgt id='9073'>0.21135E+02</wgt>
<wgt id='9074'>0.21143E+02</wgt>
<wgt id='9075'>0.21139E+02</wgt>
<wgt id='9076'>0.21139E+02</wgt>
<wgt id='9077'>0.21143E+02</wgt>
<wgt id='9078'>0.21143E+02</wgt>
<wgt id='9079'>0.21137E+02</wgt>
<wgt id='9080'>0.21153E+02</wgt>
<wgt id='9081'>0.21139E+02</wgt>
<wgt id='9082'>0.21145E+02</wgt>
<wgt id='9083'>0.21134E+02</wgt>
<wgt id='9084'>0.21135E+02</wgt>
<wgt id='9085'>0.21135E+02</wgt>
<wgt id='9086'>0.21143E+02</wgt>
<wgt id='9087'>0.21128E+02</wgt>
<wgt id='9088'>0.21135E+02</wgt>
<wgt id='9089'>0.21135E+02</wgt>
<wgt id='9090'>0.21143E+02</wgt>
<wgt id='9091'>0.21139E+02</wgt>
<wgt id='9092'>0.21140E+02</wgt>
<wgt id='9093'>0.21137E+02</wgt>
<wgt id='9094'>0.21139E+02</wgt>
<wgt id='9095'>0.21143E+02</wgt>
<wgt id='9096'>0.21136E+02</wgt>
<wgt id='9097'>0.21141E+02</wgt>
<wgt id='9098'>0.21140E+02</wgt>
<wgt id='9099'>0.21136E+02</wgt>
<wgt id='9100'>0.21140E+02</wgt>
<wgt id='9101'>0.20885E+02</wgt>
<wgt id='9102'>0.21335E+02</wgt>
<wgt id='10000'>0.22190E+02</wgt>
<wgt id='10001'>0.22294E+02</wgt>
<wgt id='10002'>0.22168E+02</wgt>
<wgt id='10003'>0.22191E+02</wgt>
<wgt id='10004'>0.22216E+02</wgt>
<wgt id='10005'>0.22828E+02</wgt>
<wgt id='10006'>0.22179E+02</wgt>
<wgt id='10007'>0.22184E+02</wgt>
<wgt id='10008'>0.22203E+02</wgt>
<wgt id='10009'>0.22153E+02</wgt>
<wgt id='10010'>0.22199E+02</wgt>
<wgt id='10011'>0.22171E+02</wgt>
<wgt id='10012'>0.22160E+02</wgt>
<wgt id='10013'>0.22185E+02</wgt>
<wgt id='10014'>0.22191E+02</wgt>
<wgt id='10015'>0.22212E+02</wgt>
<wgt id='10016'>0.22189E+02</wgt>
<wgt id='10017'>0.22075E+02</wgt>
<wgt id='10018'>0.22208E+02</wgt>
<wgt id='10019'>0.22166E+02</wgt>
<wgt id='10020'>0.22194E+02</wgt>
<wgt id='10021'>0.22189E+02</wgt>
<wgt id='10022'>0.22184E+02</wgt>
<wgt id='10023'>0.22191E+02</wgt>
<wgt id='10024'>0.22184E+02</wgt>
<wgt id='10025'>0.22179E+02</wgt>
<wgt id='10026'>0.22200E+02</wgt>
<wgt id='10027'>0.22200E+02</wgt>
<wgt id='10028'>0.22252E+02</wgt>
<wgt id='10029'>0.22215E+02</wgt>
<wgt id='10030'>0.22185E+02</wgt>
<wgt id='10031'>0.21834E+02</wgt>
<wgt id='10032'>0.22485E+02</wgt>
<wgt id='11000'>0.21140E+02</wgt>
<wgt id='11001'>0.21121E+02</wgt>
<wgt id='11002'>0.21229E+02</wgt>
<wgt id='11003'>0.21116E+02</wgt>
<wgt id='11004'>0.21238E+02</wgt>
<wgt id='11005'>0.20849E+02</wgt>
<wgt id='11006'>0.21141E+02</wgt>
<wgt id='11007'>0.21087E+02</wgt>
<wgt id='11008'>0.21087E+02</wgt>
<wgt id='11009'>0.21036E+02</wgt>
<wgt id='11010'>0.21192E+02</wgt>
<wgt id='11011'>0.21025E+02</wgt>
<wgt id='11012'>0.21164E+02</wgt>
<wgt id='11013'>0.21218E+02</wgt>
<wgt id='11014'>0.21075E+02</wgt>
<wgt id='11015'>0.21115E+02</wgt>
<wgt id='11016'>0.21112E+02</wgt>
<wgt id='11017'>0.21326E+02</wgt>
<wgt id='11018'>0.21135E+02</wgt>
<wgt id='11019'>0.21130E+02</wgt>
<wgt id='11020'>0.21184E+02</wgt>
<wgt id='11021'>0.21208E+02</wgt>
<wgt id='11022'>0.21586E+02</wgt>
<wgt id='11023'>0.21138E+02</wgt>
<wgt id='11024'>0.21135E+02</wgt>
<wgt id='11025'>0.21105E+02</wgt>
<wgt id='11026'>0.21144E+02</wgt>
<wgt id='11027'>0.21135E+02</wgt>
<wgt id='11028'>0.21142E+02</wgt>
<wgt id='11029'>0.21141E+02</wgt>
<wgt id='11030'>0.21141E+02</wgt>
<wgt id='11031'>0.20885E+02</wgt>
<wgt id='11032'>0.21335E+02</wgt>
<wgt id='12000'>0.23667E+02</wgt>
<wgt id='12001'>0.23633E+02</wgt>
<wgt id='12002'>0.23701E+02</wgt>
<wgt id='12003'>0.23728E+02</wgt>
<wgt id='12004'>0.23606E+02</wgt>
<wgt id='12005'>0.23708E+02</wgt>
<wgt id='12006'>0.23627E+02</wgt>
<wgt id='12007'>0.23738E+02</wgt>
<wgt id='12008'>0.23598E+02</wgt>
<wgt id='12009'>0.23703E+02</wgt>
<wgt id='12010'>0.23632E+02</wgt>
<wgt id='12011'>0.23618E+02</wgt>
<wgt id='12012'>0.23720E+02</wgt>
<wgt id='12013'>0.23571E+02</wgt>
<wgt id='12014'>0.23765E+02</wgt>
<wgt id='12015'>0.23661E+02</wgt>
<wgt id='12016'>0.23644E+02</wgt>
<wgt id='12017'>0.23745E+02</wgt>
<wgt id='12018'>0.23583E+02</wgt>
<wgt id='12019'>0.23579E+02</wgt>
<wgt id='12020'>0.23751E+02</wgt>
<wgt id='12021'>0.23766E+02</wgt>
<wgt id='12022'>0.23541E+02</wgt>
<wgt id='12023'>0.23569E+02</wgt>
<wgt id='12024'>0.23644E+02</wgt>
<wgt id='12025'>0.23736E+02</wgt>
<wgt id='12026'>0.23632E+02</wgt>
<wgt id='12027'>0.23649E+02</wgt>
<wgt id='12028'>0.23707E+02</wgt>
<wgt id='12050'>0.23667E+02</wgt>
<wgt id='12051'>0.23647E+02</wgt>
<wgt id='12052'>0.23679E+02</wgt>
<wgt id='12053'>0.23642E+02</wgt>
<wgt id='12054'>0.23676E+02</wgt>
<wgt id='12055'>0.23754E+02</wgt>
<wgt id='12056'>0.23479E+02</wgt>
<wgt id='12057'>0.23570E+02</wgt>
<wgt id='12058'>0.23758E+02</wgt>
<wgt id='12059'>0.23611E+02</wgt>
<wgt id='12060'>0.23729E+02</wgt>
<wgt id='12061'>0.23674E+02</wgt>
<wgt id='12062'>0.23701E+02</wgt>
<wgt id='12063'>0.23406E+02</wgt>
<wgt id='13000'>0.21342E+02</wgt>
<wgt id='13001'>0.21324E+02</wgt>
<wgt id='13002'>0.21356E+02</wgt>
<wgt id='13003'>0.21370E+02</wgt>
<wgt id='13004'>0.21310E+02</wgt>
<wgt id='13005'>0.21393E+02</wgt>
<wgt id='13006'>0.21287E+02</wgt>
<wgt id='13007'>0.21438E+02</wgt>
<wgt id='13008'>0.21245E+02</wgt>
<wgt id='13009'>0.21339E+02</wgt>
<wgt id='13010'>0.21342E+02</wgt>
<wgt id='13011'>0.21397E+02</wgt>
<wgt id='13012'>0.21284E+02</wgt>
<wgt id='13013'>0.21277E+02</wgt>
<wgt id='13014'>0.21403E+02</wgt>
<wgt id='13015'>0.21304E+02</wgt>
<wgt id='13016'>0.21360E+02</wgt>
<wgt id='13017'>0.21331E+02</wgt>
<wgt id='13018'>0.21345E+02</wgt>
<wgt id='13019'>0.21301E+02</wgt>
<wgt id='13020'>0.21378E+02</wgt>
<wgt id='13021'>0.21157E+02</wgt>
<wgt id='13022'>0.21493E+02</wgt>
<wgt id='13023'>0.21348E+02</wgt>
<wgt id='13024'>0.21329E+02</wgt>
<wgt id='13025'>0.21275E+02</wgt>
<wgt id='13026'>0.21350E+02</wgt>
<wgt id='13027'>0.21343E+02</wgt>
<wgt id='13028'>0.21362E+02</wgt>
<wgt id='13050'>0.21342E+02</wgt>
<wgt id='13051'>0.21344E+02</wgt>
<wgt id='13052'>0.21298E+02</wgt>
<wgt id='13053'>0.21336E+02</wgt>
<wgt id='13054'>0.21334E+02</wgt>
<wgt id='13055'>0.21308E+02</wgt>
<wgt id='13056'>0.21328E+02</wgt>
<wgt id='13057'>0.21263E+02</wgt>
<wgt id='13058'>0.21460E+02</wgt>
<wgt id='13059'>0.21272E+02</wgt>
<wgt id='13060'>0.21385E+02</wgt>
<wgt id='13061'>0.21272E+02</wgt>
<wgt id='13062'>0.21522E+02</wgt>
<wgt id='13063'>0.21202E+02</wgt>
<wgt id='14000'>0.21954E+02</wgt>
<wgt id='14001'>0.21951E+02</wgt>
<wgt id='14002'>0.21947E+02</wgt>
<wgt id='14003'>0.21944E+02</wgt>
<wgt id='14004'>0.21941E+02</wgt>
<wgt id='14005'>0.21937E+02</wgt>
<wgt id='14006'>0.21934E+02</wgt>
<wgt id='14007'>0.21930E+02</wgt>
<wgt id='14008'>0.21927E+02</wgt>
<wgt id='14009'>0.21923E+02</wgt>
<wgt id='14010'>0.21920E+02</wgt>
<wgt id='14011'>0.21917E+02</wgt>
<wgt id='14012'>0.21913E+02</wgt>
<wgt id='14013'>0.21910E+02</wgt>
<wgt id='14014'>0.21907E+02</wgt>
<wgt id='14015'>0.21903E+02</wgt>
<wgt id='14016'>0.21900E+02</wgt>
<wgt id='14017'>0.21896E+02</wgt>
<wgt id='14018'>0.21893E+02</wgt>
<wgt id='14019'>0.21889E+02</wgt>
<wgt id='14020'>0.21886E+02</wgt>
<wgt id='14021'>0.21883E+02</wgt>
<wgt id='14022'>0.21879E+02</wgt>
<wgt id='14023'>0.21876E+02</wgt>
<wgt id='14024'>0.21873E+02</wgt>
<wgt id='14025'>0.21869E+02</wgt>
<wgt id='14026'>0.21866E+02</wgt>
<wgt id='14027'>0.21862E+02</wgt>
<wgt id='14028'>0.21859E+02</wgt>
<wgt id='14029'>0.21856E+02</wgt>
<wgt id='14030'>0.21852E+02</wgt>
<wgt id='15000'>0.20881E+02</wgt>
<wgt id='15001'>0.20901E+02</wgt>
<wgt id='15002'>0.20993E+02</wgt>
<wgt id='15003'>0.20696E+02</wgt>
<wgt id='15004'>0.20836E+02</wgt>
<wgt id='15005'>0.20976E+02</wgt>
<wgt id='15006'>0.20819E+02</wgt>
<wgt id='15007'>0.20885E+02</wgt>
<wgt id='15008'>0.20918E+02</wgt>
<wgt id='15009'>0.20865E+02</wgt>
<wgt id='15010'>0.20823E+02</wgt>
<wgt id='15011'>0.21131E+02</wgt>
<wgt id='15012'>0.20655E+02</wgt>
<wgt id='15013'>0.20566E+02</wgt>
<wgt id='15014'>0.20652E+02</wgt>
<wgt id='15015'>0.20873E+02</wgt>
<wgt id='15016'>0.21040E+02</wgt>
<wgt id='15017'>0.20880E+02</wgt>
<wgt id='15018'>0.20846E+02</wgt>
<wgt id='15019'>0.20845E+02</wgt>
<wgt id='15020'>0.20967E+02</wgt>
<wgt id='15021'>0.20842E+02</wgt>
<wgt id='15022'>0.20910E+02</wgt>
<wgt id='15023'>0.20846E+02</wgt>
<wgt id='15024'>0.20858E+02</wgt>
<wgt id='15025'>0.20901E+02</wgt>
<wgt id='15026'>0.20881E+02</wgt>
<wgt id='15027'>0.20846E+02</wgt>
<wgt id='15028'>0.20900E+02</wgt>
<wgt id='15029'>0.20907E+02</wgt>
<wgt id='15030'>0.20881E+02</wgt>
<wgt id='15031'>0.20875E+02</wgt>
<wgt id='15032'>0.20901E+02</wgt>
<wgt id='15033'>0.20908E+02</wgt>
<wgt id='15034'>0.20870E+02</wgt>
<wgt id='15035'>0.20916E+02</wgt>
<wgt id='15036'>0.20880E+02</wgt>
<wgt id='15037'>0.20901E+02</wgt>
<wgt id='15038'>0.20882E+02</wgt>
<wgt id='15039'>0.20883E+02</wgt>
<wgt id='15040'>0.20857E+02</wgt>
<wgt id='15041'>0.20872E+02</wgt>
<wgt id='15042'>0.20877E+02</wgt>
<wgt id='15043'>0.20866E+02</wgt>
<wgt id='15044'>0.20888E+02</wgt>
<wgt id='15045'>0.20878E+02</wgt>
<wgt id='15046'>0.20853E+02</wgt>
<wgt id='15047'>0.20871E+02</wgt>
<wgt id='15048'>0.20888E+02</wgt>
<wgt id='15049'>0.20871E+02</wgt>
<wgt id='15050'>0.20886E+02</wgt>
<wgt id='15051'>0.20889E+02</wgt>
<wgt id='15052'>0.20886E+02</wgt>
<wgt id='15053'>0.20885E+02</wgt>
<wgt id='15054'>0.20871E+02</wgt>
<wgt id='15055'>0.20878E+02</wgt>
<wgt id='15056'>0.20900E+02</wgt>
<wgt id='15057'>0.20879E+02</wgt>
<wgt id='15058'>0.20867E+02</wgt>
<wgt id='15059'>0.20873E+02</wgt>
<wgt id='15060'>0.20875E+02</wgt>
<wgt id='15061'>0.20884E+02</wgt>
<wgt id='15062'>0.20885E+02</wgt>
<wgt id='15063'>0.20890E+02</wgt>
<wgt id='15064'>0.20877E+02</wgt>
<wgt id='15065'>0.20880E+02</wgt>
<wgt id='15066'>0.20882E+02</wgt>
<wgt id='15067'>0.20888E+02</wgt>
<wgt id='15068'>0.20887E+02</wgt>
<wgt id='15069'>0.20893E+02</wgt>
<wgt id='15070'>0.20879E+02</wgt>
<wgt id='15071'>0.20893E+02</wgt>
<wgt id='15072'>0.20893E+02</wgt>
<wgt id='15073'>0.20876E+02</wgt>
<wgt id='15074'>0.20885E+02</wgt>
<wgt id='15075'>0.20880E+02</wgt>
<wgt id='15076'>0.20880E+02</wgt>
<wgt id='15077'>0.20884E+02</wgt>
<wgt id='15078'>0.20884E+02</wgt>
<wgt id='15079'>0.20878E+02</wgt>
<wgt id='15080'>0.20894E+02</wgt>
<wgt id='15081'>0.20880E+02</wgt>
<wgt id='15082'>0.20886E+02</wgt>
<wgt id='15083'>0.20875E+02</wgt>
<wgt id='15084'>0.20876E+02</wgt>
<wgt id='15085'>0.20876E+02</wgt>
<wgt id='15086'>0.20884E+02</wgt>
<wgt id='15087'>0.20869E+02</wgt>
<wgt id='15088'>0.20876E+02</wgt>
<wgt id='15089'>0.20876E+02</wgt>
<wgt id='15090'>0.20884E+02</wgt>
<wgt id='15091'>0.20880E+02</wgt>
<wgt id='15092'>0.20881E+02</wgt>
<wgt id='15093'>0.20878E+02</wgt>
<wgt id='15094'>0.20880E+02</wgt>
<wgt id='15095'>0.20884E+02</wgt>
<wgt id='15096'>0.20877E+02</wgt>
<wgt id='15097'>0.20882E+02</wgt>
<wgt id='15098'>0.20881E+02</wgt>
<wgt id='15099'>0.20877E+02</wgt>
<wgt id='15100'>0.20881E+02</wgt>
<wgt id='15101'>0.20881E+02</wgt>
<wgt id='15102'>0.20880E+02</wgt>
<wgt id='15103'>0.20882E+02</wgt>
<wgt id='15104'>0.20882E+02</wgt>
<wgt id='15105'>0.20882E+02</wgt>
<wgt id='15106'>0.20881E+02</wgt>
<wgt id='15107'>0.20880E+02</wgt>
<wgt id='1500'>0.22097E+02</wgt>
<wgt id='1501'>0.20079E+02</wgt>
<wgt id='1502'>0.22093E+02</wgt>
<wgt id='1503'>0.21938E+02</wgt>
<wgt id='1504'>0.21867E+02</wgt>
<wgt id='1505'>0.19186E+02</wgt>
<wgt id='1506'>0.22321E+02</wgt>
<wgt id='1507'>0.22387E+02</wgt>
<wgt id='1508'>0.22259E+02</wgt>
<wgt id='1509'>0.22138E+02</wgt>
<wgt id='1510'>0.21274E+02</wgt>
<wgt id='1511'>0.21594E+02</wgt>
<wgt id='1512'>0.22539E+02</wgt>
<wgt id='1513'>0.22603E+02</wgt>
<wgt id='1514'>0.21455E+02</wgt>
<wgt id='1515'>0.22343E+02</wgt>
<wgt id='1516'>0.22422E+02</wgt>
<wgt id='1517'>0.21756E+02</wgt>
<wgt id='1518'>0.21907E+02</wgt>
<wgt id='1519'>0.22453E+02</wgt>
<wgt id='1520'>0.22437E+02</wgt>
<wgt id='1521'>0.22215E+02</wgt>
<wgt id='1522'>0.21890E+02</wgt>
<wgt id='1523'>0.23911E+02</wgt>
<wgt id='1524'>0.21923E+02</wgt>
<wgt id='1525'>0.22388E+02</wgt>
<wgt id='1526'>0.21769E+02</wgt>
<wgt id='1527'>0.21874E+02</wgt>
<wgt id='1528'>0.21885E+02</wgt>
<wgt id='1529'>0.21864E+02</wgt>
<wgt id='1530'>0.22567E+02</wgt>
<wgt id='1531'>0.22024E+02</wgt>
<wgt id='1532'>0.21466E+02</wgt>
<wgt id='1533'>0.22358E+02</wgt>
<wgt id='1534'>0.22236E+02</wgt>
<wgt id='1535'>0.22743E+02</wgt>
<wgt id='1536'>0.22723E+02</wgt>
<wgt id='1537'>0.22454E+02</wgt>
<wgt id='1538'>0.22365E+02</wgt>
<wgt id='1539'>0.21347E+02</wgt>
<wgt id='1540'>0.22464E+02</wgt>
<wgt id='1541'>0.22122E+02</wgt>
<wgt id='1542'>0.22305E+02</wgt>
<wgt id='1543'>0.22346E+02</wgt>
<wgt id='1544'>0.21889E+02</wgt>
<wgt id='1545'>0.22190E+02</wgt>
<wgt id='1546'>0.22392E+02</wgt>
<wgt id='1547'>0.21757E+02</wgt>
<wgt id='1548'>0.21760E+02</wgt>
<wgt id='1549'>0.22071E+02</wgt>
<wgt id='1550'>0.22131E+02</wgt>
<wgt id='1551'>0.22083E+02</wgt>
<wgt id='1552'>0.21910E+02</wgt>
<wgt id='1553'>0.22424E+02</wgt>
<wgt id='1554'>0.22241E+02</wgt>
<wgt id='1555'>0.22061E+02</wgt>
<wgt id='1556'>0.21504E+02</wgt>
<wgt id='1557'>0.22927E+02</wgt>
<wgt id='1558'>0.21852E+02</wgt>
<wgt id='1559'>0.22344E+02</wgt>
<wgt id='1560'>0.22045E+02</wgt>
<wgt id='1561'>0.22269E+02</wgt>
<wgt id='1562'>0.22077E+02</wgt>
<wgt id='1563'>0.22534E+02</wgt>
<wgt id='1564'>0.21653E+02</wgt>
<wgt id='1565'>0.22420E+02</wgt>
<wgt id='1566'>0.22211E+02</wgt>
<wgt id='1567'>0.23387E+02</wgt>
<wgt id='1568'>0.21728E+02</wgt>
<wgt id='1569'>0.21555E+02</wgt>
<wgt id='1570'>0.22116E+02</wgt>
<wgt id='1571'>0.22547E+02</wgt>
<wgt id='1572'>0.22071E+02</wgt>
<wgt id='1573'>0.20528E+02</wgt>
<wgt id='1574'>0.22275E+02</wgt>
<wgt id='1575'>0.21906E+02</wgt>
<wgt id='1576'>0.21530E+02</wgt>
<wgt id='1577'>0.22331E+02</wgt>
<wgt id='1578'>0.22988E+02</wgt>
<wgt id='1579'>0.21970E+02</wgt>
<wgt id='1580'>0.22249E+02</wgt>
<wgt id='1581'>0.22250E+02</wgt>
<wgt id='1582'>0.21884E+02</wgt>
<wgt id='1583'>0.22302E+02</wgt>
<wgt id='1584'>0.22140E+02</wgt>
<wgt id='1585'>0.21434E+02</wgt>
<wgt id='1586'>0.21995E+02</wgt>
<wgt id='1587'>0.21985E+02</wgt>
<wgt id='1588'>0.22111E+02</wgt>
<wgt id='1589'>0.22701E+02</wgt>
<wgt id='1590'>0.21968E+02</wgt>
<wgt id='1591'>0.21658E+02</wgt>
<wgt id='1592'>0.22585E+02</wgt>
<wgt id='1593'>0.21953E+02</wgt>
<wgt id='1594'>0.22576E+02</wgt>
<wgt id='1595'>0.21642E+02</wgt>
<wgt id='1596'>0.22511E+02</wgt>
<wgt id='1597'>0.22152E+02</wgt>
<wgt id='1598'>0.23041E+02</wgt>
<wgt id='1599'>0.22750E+02</wgt>
<wgt id='1600'>0.22147E+02</wgt>
<wgt id='1601'>0.21798E+02</wgt>
<wgt id='1602'>0.22237E+02</wgt>
<wgt id='1700'>0.21328E+02</wgt>
<wgt id='1800'>0.25608E+02</wgt>
<wgt id='1850'>0.30127E+02</wgt>
<wgt id='1900'>0.25563E+02</wgt>
<wgt id='1950'>0.29269E+02</wgt>
</rwgt>
</event>
<event>
      4   9999  2.16956E+01  3.56185E+01 -1.00000E+00  1.45755E-01
      21    -1     0     0   512   501  0.000000000E+00  0.000000000E+00  4.025160900E+01  4.025160900E+01  0.000000000E+00  0.00000E+00  9.000E+00
      21    -1     0     0   501   502  0.000000000E+00  0.000000000E+00 -2.108413042E+02  2.108413042E+02  0.000000000E+00  0.00000E+00  9.000E+00
      25     1     1     2     0     0 -3.524407980E+01  5.150651778E+00 -1.718334116E+02  2.154527504E+02  1.249979677E+02  0.00000E+00  9.000E+00
      21     1     1     2   512   502  3.524407980E+01 -5.150651778E+00  1.243716390E+00  3.564016281E+01  8.027287484E-07  0.00000E+00  9.000E+00
#rwgt            1           1   23.716805642478867                1        7125           0
<rwgt>
<wgt id='1001'>0.21696E+02</wgt>
<wgt id='1002'>0.18777E+02</wgt>
<wgt id='1003'>0.24478E+02</wgt>
<wgt id='1004'>0.19530E+02</wgt>
<wgt id='1005'>0.17457E+02</wgt>
<wgt id='1006'>0.21443E+02</wgt>
<wgt id='1007'>0.23925E+02</wgt>
<wgt id='1008'>0.19702E+02</wgt>
<wgt id='1009'>0.28064E+02</wgt>
<wgt id='2000'>0.21696E+02</wgt>
<wgt id='2001'>0.21664E+02</wgt>
<wgt id='2002'>0.21768E+02</wgt>
<wgt id='2003'>0.21760E+02</wgt>
<wgt id='2004'>0.21721E+02</wgt>
<wgt id='2005'>0.21649E+02</wgt>
<wgt id='2006'>0.21634E+02</wgt>
<wgt id='2007'>0.21607E+02</wgt>
<wgt id='2008'>0.21656E+02</wgt>
<wgt id='2009'>0.21712E+02</wgt>
<wgt id='2010'>0.21686E+02</wgt>
<wgt id='2011'>0.21769E+02</wgt>
<wgt id='2012'>0.21798E+02</wgt>
<wgt id='2013'>0.21839E+02</wgt>
<wgt id='2014'>0.21785E+02</wgt>
<wgt id='2015'>0.21757E+02</wgt>
<wgt id='2016'>0.21674E+02</wgt>
<wgt id='2017'>0.21690E+02</wgt>
<wgt id='2018'>0.21777E+02</wgt>
<wgt id='2019'>0.21690E+02</wgt>
<wgt id='2020'>0.21801E+02</wgt>
<wgt id='2021'>0.21642E+02</wgt>
<wgt id='2022'>0.21763E+02</wgt>
<wgt id='2023'>0.21745E+02</wgt>
<wgt id='2024'>0.21706E+02</wgt>
<wgt id='2025'>0.21768E+02</wgt>
<wgt id='2026'>0.21735E+02</wgt>
<wgt id='2027'>0.21668E+02</wgt>
<wgt id='2028'>0.21667E+02</wgt>
<wgt id='2029'>0.21719E+02</wgt>
<wgt id='2030'>0.21715E+02</wgt>
<wgt id='2031'>0.21709E+02</wgt>
<wgt id='2032'>0.21705E+02</wgt>
<wgt id='2033'>0.21709E+02</wgt>
<wgt id='2034'>0.21693E+02</wgt>
<wgt id='2035'>0.21680E+02</wgt>
<wgt id='2036'>0.21688E+02</wgt>
<wgt id='2037'>0.21702E+02</wgt>
<wgt id='2038'>0.21699E+02</wgt>
<wgt id='2039'>0.21712E+02</wgt>
<wgt id='2040'>0.21695E+02</wgt>
<wgt id='2041'>0.21683E+02</wgt>
<wgt id='2042'>0.21650E+02</wgt>
<wgt id='2043'>0.21720E+02</wgt>
<wgt id='2044'>0.21711E+02</wgt>
<wgt id='2045'>0.21689E+02</wgt>
<wgt id='2046'>0.21701E+02</wgt>
<wgt id='2047'>0.21706E+02</wgt>
<wgt id='2048'>0.21693E+02</wgt>
<wgt id='2049'>0.21701E+02</wgt>
<wgt id='2050'>0.21703E+02</wgt>
<wgt id='2051'>0.21727E+02</wgt>
<wgt id='2052'>0.21700E+02</wgt>
<wgt id='2053'>0.21702E+02</wgt>
<wgt id='2054'>0.21700E+02</wgt>
<wgt id='2055'>0.21692E+02</wgt>
<wgt id='2056'>0.21702E+02</wgt>
<wgt id='2057'>0.21714E+02</wgt>
<wgt id='2058'>0.21695E+02</wgt>
<wgt id='2059'>0.21687E+02</wgt>
<wgt id='2060'>0.21692E+02</wgt>
<wgt id='2061'>0.21694E+02</wgt>
<wgt id='2062'>0.21707E+02</wgt>
<wgt id='2063'>0.21686E+02</wgt>
<wgt id='2064'>0.21690E+02</wgt>
<wgt id='2065'>0.21703E+02</wgt>
<wgt id='2066'>0.21690E+02</wgt>
<wgt id='2067'>0.21696E+02</wgt>
<wgt id='2068'>0.21705E+02</wgt>
<wgt id='2069'>0.21684E+02</wgt>
<wgt id='2070'>0.21703E+02</wgt>
<wgt id='2071'>0.21684E+02</wgt>
<wgt id='2072'>0.21698E+02</wgt>
<wgt id='2073'>0.21705E+02</wgt>
<wgt id='2074'>0.21685E+02</wgt>
<wgt id='2075'>0.21697E+02</wgt>
<wgt id='2076'>0.21688E+02</wgt>
<wgt id='2077'>0.21700E+02</wgt>
<wgt id='2078'>0.21697E+02</wgt>
<wgt id='2079'>0.21700E+02</wgt>
<wgt id='2080'>0.21690E+02</wgt>
<wgt id='2081'>0.21696E+02</wgt>
<wgt id='2082'>0.21694E+02</wgt>
<wgt id='2083'>0.21696E+02</wgt>
<wgt id='2084'>0.21696E+02</wgt>
<wgt id='2085'>0.21691E+02</wgt>
<wgt id='2086'>0.21694E+02</wgt>
<wgt id='2087'>0.21698E+02</wgt>
<wgt id='2088'>0.21696E+02</wgt>
<wgt id='2089'>0.21700E+02</wgt>
<wgt id='2090'>0.21687E+02</wgt>
<wgt id='2091'>0.21692E+02</wgt>
<wgt id='2092'>0.21698E+02</wgt>
<wgt id='2093'>0.21692E+02</wgt>
<wgt id='2094'>0.21701E+02</wgt>
<wgt id='2095'>0.21699E+02</wgt>
<wgt id='2096'>0.21698E+02</wgt>
<wgt id='2097'>0.21692E+02</wgt>
<wgt id='2098'>0.21696E+02</wgt>
<wgt id='2099'>0.21692E+02</wgt>
<wgt id='2100'>0.21698E+02</wgt>
<wgt id='2101'>0.21214E+02</wgt>
<wgt id='2102'>0.22088E+02</wgt>
<wgt id='2104'>0.19545E+02</wgt>
<wgt id='2105'>0.19920E+02</wgt>
<wgt id='2106'>0.20387E+02</wgt>
<wgt id='2107'>0.20869E+02</wgt>
<wgt id='2108'>0.21515E+02</wgt>
<wgt id='2109'>0.21966E+02</wgt>
<wgt id='2110'>0.22460E+02</wgt>
<wgt id='2111'>0.22878E+02</wgt>
<wgt id='3000'>0.22575E+02</wgt>
<wgt id='3001'>0.22642E+02</wgt>
<wgt id='3002'>0.22513E+02</wgt>
<wgt id='3003'>0.22638E+02</wgt>
<wgt id='3004'>0.22623E+02</wgt>
<wgt id='3005'>0.22667E+02</wgt>
<wgt id='3006'>0.22594E+02</wgt>
<wgt id='3007'>0.22618E+02</wgt>
<wgt id='3008'>0.22520E+02</wgt>
<wgt id='3009'>0.22553E+02</wgt>
<wgt id='3010'>0.22494E+02</wgt>
<wgt id='3011'>0.22610E+02</wgt>
<wgt id='3012'>0.22723E+02</wgt>
<wgt id='3013'>0.22436E+02</wgt>
<wgt id='3014'>0.22655E+02</wgt>
<wgt id='3015'>0.22620E+02</wgt>
<wgt id='3016'>0.22592E+02</wgt>
<wgt id='3017'>0.22669E+02</wgt>
<wgt id='3018'>0.22627E+02</wgt>
<wgt id='3019'>0.22473E+02</wgt>
<wgt id='3020'>0.22509E+02</wgt>
<wgt id='3021'>0.22477E+02</wgt>
<wgt id='3022'>0.22566E+02</wgt>
<wgt id='3023'>0.22515E+02</wgt>
<wgt id='3024'>0.22518E+02</wgt>
<wgt id='3025'>0.22569E+02</wgt>
<wgt id='3026'>0.22610E+02</wgt>
<wgt id='3027'>0.22585E+02</wgt>
<wgt id='3028'>0.22510E+02</wgt>
<wgt id='3029'>0.22580E+02</wgt>
<wgt id='3030'>0.22596E+02</wgt>
<wgt id='3031'>0.22583E+02</wgt>
<wgt id='3032'>0.22581E+02</wgt>
<wgt id='3033'>0.22571E+02</wgt>
<wgt id='3034'>0.22594E+02</wgt>
<wgt id='3035'>0.22562E+02</wgt>
<wgt id='3036'>0.22583E+02</wgt>
<wgt id='3037'>0.22580E+02</wgt>
<wgt id='3038'>0.22576E+02</wgt>
<wgt id='3039'>0.22589E+02</wgt>
<wgt id='3040'>0.22585E+02</wgt>
<wgt id='3041'>0.22580E+02</wgt>
<wgt id='3042'>0.22547E+02</wgt>
<wgt id='3043'>0.22535E+02</wgt>
<wgt id='3044'>0.22594E+02</wgt>
<wgt id='3045'>0.22595E+02</wgt>
<wgt id='3046'>0.22588E+02</wgt>
<wgt id='3047'>0.22563E+02</wgt>
<wgt id='3048'>0.22600E+02</wgt>
<wgt id='3049'>0.22565E+02</wgt>
<wgt id='3050'>0.22568E+02</wgt>
<wgt id='3051'>0.22593E+02</wgt>
<wgt id='3052'>0.22569E+02</wgt>
<wgt id='3053'>0.22576E+02</wgt>
<wgt id='3054'>0.22573E+02</wgt>
<wgt id='3055'>0.22550E+02</wgt>
<wgt id='3056'>0.22587E+02</wgt>
<wgt id='3057'>0.22585E+02</wgt>
<wgt id='3058'>0.22558E+02</wgt>
<wgt id='3059'>0.22584E+02</wgt>
<wgt id='3060'>0.22572E+02</wgt>
<wgt id='3061'>0.22600E+02</wgt>
<wgt id='3062'>0.22581E+02</wgt>
<wgt id='3063'>0.22592E+02</wgt>
<wgt id='3064'>0.22570E+02</wgt>
<wgt id='3065'>0.22582E+02</wgt>
<wgt id='3066'>0.22574E+02</wgt>
<wgt id='3067'>0.22568E+02</wgt>
<wgt id='3068'>0.22574E+02</wgt>
<wgt id='3069'>0.22574E+02</wgt>
<wgt id='3070'>0.22566E+02</wgt>
<wgt id='3071'>0.22573E+02</wgt>
<wgt id='3072'>0.22584E+02</wgt>
<wgt id='3073'>0.22571E+02</wgt>
<wgt id='3074'>0.22573E+02</wgt>
<wgt id='3075'>0.22580E+02</wgt>
<wgt id='3076'>0.22569E+02</wgt>
<wgt id='3077'>0.22568E+02</wgt>
<wgt id='3078'>0.22580E+02</wgt>
<wgt id='3079'>0.22588E+02</wgt>
<wgt id='3080'>0.22575E+02</wgt>
<wgt id='3081'>0.22582E+02</wgt>
<wgt id='3082'>0.22579E+02</wgt>
<wgt id='3083'>0.22585E+02</wgt>
<wgt id='3084'>0.22578E+02</wgt>
<wgt id='3085'>0.22571E+02</wgt>
<wgt id='3086'>0.22579E+02</wgt>
<wgt id='3087'>0.22579E+02</wgt>
<wgt id='3088'>0.22581E+02</wgt>
<wgt id='3089'>0.22578E+02</wgt>
<wgt id='3090'>0.22575E+02</wgt>
<wgt id='3091'>0.22577E+02</wgt>
<wgt id='3092'>0.22578E+02</wgt>
<wgt id='3093'>0.22574E+02</wgt>
<wgt id='3094'>0.22573E+02</wgt>
<wgt id='3095'>0.22576E+02</wgt>
<wgt id='3096'>0.22575E+02</wgt>
<wgt id='3097'>0.22574E+02</wgt>
<wgt id='3098'>0.22577E+02</wgt>
<wgt id='3099'>0.22576E+02</wgt>
<wgt id='3100'>0.22573E+02</wgt>
<wgt id='3101'>0.22091E+02</wgt>
<wgt id='3102'>0.23134E+02</wgt>
<wgt id='5000'>0.20761E+02</wgt>
<wgt id='5001'>0.20616E+02</wgt>
<wgt id='5002'>0.20686E+02</wgt>
<wgt id='5003'>0.20609E+02</wgt>
<wgt id='5004'>0.20743E+02</wgt>
<wgt id='5005'>0.20123E+02</wgt>
<wgt id='5006'>0.20798E+02</wgt>
<wgt id='5007'>0.20740E+02</wgt>
<wgt id='5008'>0.20461E+02</wgt>
<wgt id='5009'>0.20977E+02</wgt>
<wgt id='5010'>0.20602E+02</wgt>
<wgt id='5011'>0.20678E+02</wgt>
<wgt id='5012'>0.20754E+02</wgt>
<wgt id='5013'>0.20442E+02</wgt>
<wgt id='5014'>0.20859E+02</wgt>
<wgt id='5015'>0.20972E+02</wgt>
<wgt id='5016'>0.20086E+02</wgt>
<wgt id='5017'>0.20700E+02</wgt>
<wgt id='5018'>0.20827E+02</wgt>
<wgt id='5019'>0.20848E+02</wgt>
<wgt id='5020'>0.20674E+02</wgt>
<wgt id='5021'>0.20857E+02</wgt>
<wgt id='5022'>0.20699E+02</wgt>
<wgt id='5023'>0.20700E+02</wgt>
<wgt id='5024'>0.20819E+02</wgt>
<wgt id='5025'>0.20767E+02</wgt>
<wgt id='5026'>0.20755E+02</wgt>
<wgt id='5027'>0.21039E+02</wgt>
<wgt id='5028'>0.20290E+02</wgt>
<wgt id='5029'>0.20230E+02</wgt>
<wgt id='5030'>0.21079E+02</wgt>
<wgt id='5031'>0.20445E+02</wgt>
<wgt id='5032'>0.21212E+02</wgt>
<wgt id='5033'>0.20657E+02</wgt>
<wgt id='5034'>0.20842E+02</wgt>
<wgt id='5035'>0.20557E+02</wgt>
<wgt id='5036'>0.20916E+02</wgt>
<wgt id='5037'>0.20597E+02</wgt>
<wgt id='5038'>0.20930E+02</wgt>
<wgt id='5039'>0.21212E+02</wgt>
<wgt id='5040'>0.20531E+02</wgt>
<wgt id='5041'>0.20463E+02</wgt>
<wgt id='5042'>0.20821E+02</wgt>
<wgt id='5043'>0.21172E+02</wgt>
<wgt id='5044'>0.20007E+02</wgt>
<wgt id='5045'>0.21479E+02</wgt>
<wgt id='5046'>0.20349E+02</wgt>
<wgt id='5047'>0.20914E+02</wgt>
<wgt id='5048'>0.20832E+02</wgt>
<wgt id='5049'>0.20798E+02</wgt>
<wgt id='5050'>0.20851E+02</wgt>
<wgt id='5051'>0.20855E+02</wgt>
<wgt id='5052'>0.20778E+02</wgt>
<wgt id='5053'>0.20714E+02</wgt>
<wgt id='5054'>0.21249E+02</wgt>
<wgt id='5055'>0.20598E+02</wgt>
<wgt id='5056'>0.20947E+02</wgt>
<wgt id='5060'>0.20322E+02</wgt>
<wgt id='5070'>0.21115E+02</wgt>
<wgt id='4000'>0.21673E+02</wgt>
<wgt id='4001'>0.21742E+02</wgt>
<wgt id='4002'>0.21793E+02</wgt>
<wgt id='4003'>0.22017E+02</wgt>
<wgt id='4004'>0.21338E+02</wgt>
<wgt id='4005'>0.21834E+02</wgt>
<wgt id='4006'>0.21609E+02</wgt>
<wgt id='4007'>0.21949E+02</wgt>
<wgt id='4008'>0.21486E+02</wgt>
<wgt id='4009'>0.21079E+02</wgt>
<wgt id='4010'>0.22131E+02</wgt>
<wgt id='4011'>0.22129E+02</wgt>
<wgt id='4012'>0.21408E+02</wgt>
<wgt id='4013'>0.20650E+02</wgt>
<wgt id='4014'>0.22240E+02</wgt>
<wgt id='4015'>0.21928E+02</wgt>
<wgt id='4016'>0.21508E+02</wgt>
<wgt id='4017'>0.21376E+02</wgt>
<wgt id='4018'>0.22026E+02</wgt>
<wgt id='4019'>0.22119E+02</wgt>
<wgt id='4020'>0.21182E+02</wgt>
<wgt id='4021'>0.21767E+02</wgt>
<wgt id='4022'>0.21475E+02</wgt>
<wgt id='4023'>0.21509E+02</wgt>
<wgt id='4024'>0.21824E+02</wgt>
<wgt id='4025'>0.21547E+02</wgt>
<wgt id='4026'>0.21778E+02</wgt>
<wgt id='4027'>0.21578E+02</wgt>
<wgt id='4028'>0.21802E+02</wgt>
<wgt id='4029'>0.21472E+02</wgt>
<wgt id='4030'>0.21743E+02</wgt>
<wgt id='4031'>0.21746E+02</wgt>
<wgt id='4032'>0.21577E+02</wgt>
<wgt id='4033'>0.21582E+02</wgt>
<wgt id='4034'>0.21868E+02</wgt>
<wgt id='4035'>0.21952E+02</wgt>
<wgt id='4036'>0.21421E+02</wgt>
<wgt id='4037'>0.21904E+02</wgt>
<wgt id='4038'>0.21259E+02</wgt>
<wgt id='4039'>0.21663E+02</wgt>
<wgt id='4040'>0.21602E+02</wgt>
<wgt id='4041'>0.21813E+02</wgt>
<wgt id='4042'>0.21588E+02</wgt>
<wgt id='4043'>0.21762E+02</wgt>
<wgt id='4044'>0.21635E+02</wgt>
<wgt id='4045'>0.21306E+02</wgt>
<wgt id='4046'>0.21598E+02</wgt>
<wgt id='4047'>0.21337E+02</wgt>
<wgt id='4048'>0.21612E+02</wgt>
<wgt id='4049'>0.21502E+02</wgt>
<wgt id='4050'>0.21146E+02</wgt>
<wgt id='4051'>0.21585E+02</wgt>
<wgt id='4052'>0.21564E+02</wgt>
<wgt id='4053'>0.21138E+02</wgt>
<wgt id='4054'>0.21846E+02</wgt>
<wgt id='4055'>0.21470E+02</wgt>
<wgt id='4056'>0.21904E+02</wgt>
<wgt id='4060'>0.21143E+02</wgt>
<wgt id='4070'>0.22140E+02</wgt>
<wgt id='4080'>0.19630E+02</wgt>
<wgt id='6000'>0.22321E+02</wgt>
<wgt id='6001'>0.22329E+02</wgt>
<wgt id='6002'>0.22311E+02</wgt>
<wgt id='6003'>0.22332E+02</wgt>
<wgt id='6004'>0.22313E+02</wgt>
<wgt id='6005'>0.22388E+02</wgt>
<wgt id='6006'>0.22256E+02</wgt>
<wgt id='6007'>0.22191E+02</wgt>
<wgt id='6008'>0.22466E+02</wgt>
<wgt id='6009'>0.22396E+02</wgt>
<wgt id='6010'>0.22247E+02</wgt>
<wgt id='6011'>0.22379E+02</wgt>
<wgt id='6012'>0.22194E+02</wgt>
<wgt id='6013'>0.22291E+02</wgt>
<wgt id='6014'>0.22373E+02</wgt>
<wgt id='6015'>0.22221E+02</wgt>
<wgt id='6016'>0.22376E+02</wgt>
<wgt id='6017'>0.22173E+02</wgt>
<wgt id='6018'>0.22495E+02</wgt>
<wgt id='6019'>0.22370E+02</wgt>
<wgt id='6020'>0.22277E+02</wgt>
<wgt id='6021'>0.22265E+02</wgt>
<wgt id='6022'>0.22396E+02</wgt>
<wgt id='6023'>0.22143E+02</wgt>
<wgt id='6024'>0.22447E+02</wgt>
<wgt id='6025'>0.22058E+02</wgt>
<wgt id='6026'>0.22548E+02</wgt>
<wgt id='6027'>0.22401E+02</wgt>
<wgt id='6028'>0.22321E+02</wgt>
<wgt id='6029'>0.22453E+02</wgt>
<wgt id='6030'>0.22166E+02</wgt>
<wgt id='6031'>0.22322E+02</wgt>
<wgt id='6032'>0.22306E+02</wgt>
<wgt id='6033'>0.22382E+02</wgt>
<wgt id='6034'>0.22256E+02</wgt>
<wgt id='6035'>0.22314E+02</wgt>
<wgt id='6036'>0.22383E+02</wgt>
<wgt id='6037'>0.22372E+02</wgt>
<wgt id='6038'>0.22312E+02</wgt>
<wgt id='6039'>0.22294E+02</wgt>
<wgt id='6040'>0.22349E+02</wgt>
<wgt id='6041'>0.22270E+02</wgt>
<wgt id='6042'>0.22380E+02</wgt>
<wgt id='6043'>0.22626E+02</wgt>
<wgt id='6044'>0.22158E+02</wgt>
<wgt id='6045'>0.22311E+02</wgt>
<wgt id='6046'>0.22344E+02</wgt>
<wgt id='6047'>0.22443E+02</wgt>
<wgt id='6048'>0.21945E+02</wgt>
<wgt id='6049'>0.22379E+02</wgt>
<wgt id='6050'>0.22276E+02</wgt>
<wgt id='7000'>0.20840E+02</wgt>
<wgt id='7001'>0.20830E+02</wgt>
<wgt id='7002'>0.20854E+02</wgt>
<wgt id='7003'>0.20908E+02</wgt>
<wgt id='7004'>0.20773E+02</wgt>
<wgt id='7005'>0.20885E+02</wgt>
<wgt id='7006'>0.20823E+02</wgt>
<wgt id='7007'>0.20727E+02</wgt>
<wgt id='7008'>0.20953E+02</wgt>
<wgt id='7009'>0.20874E+02</wgt>
<wgt id='7010'>0.20808E+02</wgt>
<wgt id='7011'>0.20616E+02</wgt>
<wgt id='7012'>0.20937E+02</wgt>
<wgt id='7013'>0.20845E+02</wgt>
<wgt id='7014'>0.20834E+02</wgt>
<wgt id='7015'>0.20767E+02</wgt>
<wgt id='7016'>0.20918E+02</wgt>
<wgt id='7017'>0.20819E+02</wgt>
<wgt id='7018'>0.20850E+02</wgt>
<wgt id='7019'>0.20806E+02</wgt>
<wgt id='7020'>0.20887E+02</wgt>
<wgt id='7021'>0.20827E+02</wgt>
<wgt id='7022'>0.20849E+02</wgt>
<wgt id='7023'>0.21132E+02</wgt>
<wgt id='7024'>0.20558E+02</wgt>
<wgt id='7025'>0.20947E+02</wgt>
<wgt id='7026'>0.20581E+02</wgt>
<wgt id='7027'>0.20955E+02</wgt>
<wgt id='7028'>0.20794E+02</wgt>
<wgt id='7029'>0.20735E+02</wgt>
<wgt id='7030'>0.21110E+02</wgt>
<wgt id='7031'>0.20836E+02</wgt>
<wgt id='7032'>0.20854E+02</wgt>
<wgt id='7033'>0.20810E+02</wgt>
<wgt id='7034'>0.20911E+02</wgt>
<wgt id='7035'>0.20890E+02</wgt>
<wgt id='7036'>0.20829E+02</wgt>
<wgt id='7037'>0.20849E+02</wgt>
<wgt id='7038'>0.20837E+02</wgt>
<wgt id='7039'>0.20815E+02</wgt>
<wgt id='7040'>0.20857E+02</wgt>
<wgt id='7041'>0.20744E+02</wgt>
<wgt id='7042'>0.20948E+02</wgt>
<wgt id='7043'>0.20863E+02</wgt>
<wgt id='7044'>0.20707E+02</wgt>
<wgt id='7045'>0.20547E+02</wgt>
<wgt id='7046'>0.20978E+02</wgt>
<wgt id='7047'>0.20894E+02</wgt>
<wgt id='7048'>0.20809E+02</wgt>
<wgt id='7049'>0.20715E+02</wgt>
<wgt id='7050'>0.20870E+02</wgt>
<wgt id='7060'>0.29606E+02</wgt>
<wgt id='8000'>0.21415E+02</wgt>
<wgt id='8001'>0.21409E+02</wgt>
<wgt id='8002'>0.21421E+02</wgt>
<wgt id='8003'>0.21418E+02</wgt>
<wgt id='8004'>0.21414E+02</wgt>
<wgt id='8005'>0.21363E+02</wgt>
<wgt id='8006'>0.21404E+02</wgt>
<wgt id='8007'>0.21398E+02</wgt>
<wgt id='8008'>0.21468E+02</wgt>
<wgt id='8009'>0.21519E+02</wgt>
<wgt id='8010'>0.21408E+02</wgt>
<wgt id='8011'>0.21402E+02</wgt>
<wgt id='8012'>0.21364E+02</wgt>
<wgt id='8013'>0.21404E+02</wgt>
<wgt id='8014'>0.21418E+02</wgt>
<wgt id='8015'>0.21395E+02</wgt>
<wgt id='8016'>0.21427E+02</wgt>
<wgt id='8017'>0.21419E+02</wgt>
<wgt id='8018'>0.21424E+02</wgt>
<wgt id='8019'>0.21468E+02</wgt>
<wgt id='8020'>0.21321E+02</wgt>
<wgt id='8021'>0.21417E+02</wgt>
<wgt id='8022'>0.21246E+02</wgt>
<wgt id='8023'>0.21447E+02</wgt>
<wgt id='8024'>0.21463E+02</wgt>
<wgt id='8025'>0.21506E+02</wgt>
<wgt id='8026'>0.21472E+02</wgt>
<wgt id='8027'>0.21376E+02</wgt>
<wgt id='8028'>0.21451E+02</wgt>
<wgt id='8029'>0.21136E+02</wgt>
<wgt id='8500'>0.22012E+02</wgt>
<wgt id='8501'>0.21977E+02</wgt>
<wgt id='8502'>0.22248E+02</wgt>
<wgt id='8503'>0.22158E+02</wgt>
<wgt id='8504'>0.21957E+02</wgt>
<wgt id='8505'>0.21907E+02</wgt>
<wgt id='8506'>0.22004E+02</wgt>
<wgt id='8507'>0.22055E+02</wgt>
<wgt id='8508'>0.22213E+02</wgt>
<wgt id='8509'>0.21935E+02</wgt>
<wgt id='8510'>0.22416E+02</wgt>
<wgt id='8511'>0.22035E+02</wgt>
<wgt id='8512'>0.21707E+02</wgt>
<wgt id='8513'>0.22017E+02</wgt>
<wgt id='8514'>0.21777E+02</wgt>
<wgt id='8515'>0.22059E+02</wgt>
<wgt id='8516'>0.22072E+02</wgt>
<wgt id='8517'>0.21884E+02</wgt>
<wgt id='8518'>0.21887E+02</wgt>
<wgt id='8519'>0.21878E+02</wgt>
<wgt id='8520'>0.22095E+02</wgt>
<wgt id='8521'>0.21869E+02</wgt>
<wgt id='8522'>0.22002E+02</wgt>
<wgt id='8523'>0.21973E+02</wgt>
<wgt id='8524'>0.21975E+02</wgt>
<wgt id='8525'>0.22002E+02</wgt>
<wgt id='8526'>0.22000E+02</wgt>
<wgt id='8527'>0.22015E+02</wgt>
<wgt id='8528'>0.21951E+02</wgt>
<wgt id='8529'>0.21993E+02</wgt>
<wgt id='8530'>0.22008E+02</wgt>
<wgt id='8531'>0.22007E+02</wgt>
<wgt id='8532'>0.22019E+02</wgt>
<wgt id='8533'>0.21975E+02</wgt>
<wgt id='8534'>0.22034E+02</wgt>
<wgt id='8535'>0.22056E+02</wgt>
<wgt id='8536'>0.22003E+02</wgt>
<wgt id='8537'>0.22023E+02</wgt>
<wgt id='8538'>0.21987E+02</wgt>
<wgt id='8539'>0.22019E+02</wgt>
<wgt id='8540'>0.22013E+02</wgt>
<wgt id='8541'>0.22023E+02</wgt>
<wgt id='8542'>0.22038E+02</wgt>
<wgt id='8543'>0.21999E+02</wgt>
<wgt id='8544'>0.22029E+02</wgt>
<wgt id='8545'>0.22034E+02</wgt>
<wgt id='8546'>0.22022E+02</wgt>
<wgt id='8547'>0.21991E+02</wgt>
<wgt id='8548'>0.21992E+02</wgt>
<wgt id='8549'>0.22011E+02</wgt>
<wgt id='8550'>0.22014E+02</wgt>
<wgt id='8551'>0.21976E+02</wgt>
<wgt id='8552'>0.22017E+02</wgt>
<wgt id='8553'>0.22010E+02</wgt>
<wgt id='8554'>0.21995E+02</wgt>
<wgt id='8555'>0.22017E+02</wgt>
<wgt id='8556'>0.22014E+02</wgt>
<wgt id='8557'>0.22005E+02</wgt>
<wgt id='8558'>0.22043E+02</wgt>
<wgt id='8559'>0.22003E+02</wgt>
<wgt id='8560'>0.21985E+02</wgt>
<wgt id='8561'>0.22006E+02</wgt>
<wgt id='8562'>0.21994E+02</wgt>
<wgt id='8563'>0.22015E+02</wgt>
<wgt id='8564'>0.22009E+02</wgt>
<wgt id='8565'>0.22005E+02</wgt>
<wgt id='8566'>0.22003E+02</wgt>
<wgt id='8567'>0.22001E+02</wgt>
<wgt id='8568'>0.22018E+02</wgt>
<wgt id='8569'>0.22015E+02</wgt>
<wgt id='8570'>0.22010E+02</wgt>
<wgt id='8571'>0.22008E+02</wgt>
<wgt id='8572'>0.22009E+02</wgt>
<wgt id='8573'>0.22010E+02</wgt>
<wgt id='8574'>0.22011E+02</wgt>
<wgt id='8575'>0.22009E+02</wgt>
<wgt id='8576'>0.22012E+02</wgt>
<wgt id='8577'>0.22016E+02</wgt>
<wgt id='8578'>0.22009E+02</wgt>
<wgt id='8579'>0.22024E+02</wgt>
<wgt id='8580'>0.22021E+02</wgt>
<wgt id='8581'>0.22013E+02</wgt>
<wgt id='8582'>0.22000E+02</wgt>
<wgt id='8583'>0.22015E+02</wgt>
<wgt id='8584'>0.22012E+02</wgt>
<wgt id='8585'>0.22011E+02</wgt>
<wgt id='8586'>0.22017E+02</wgt>
<wgt id='8587'>0.22009E+02</wgt>
<wgt id='8588'>0.22008E+02</wgt>
<wgt id='8589'>0.22014E+02</wgt>
<wgt id='8590'>0.22011E+02</wgt>
<wgt id='8591'>0.22012E+02</wgt>
<wgt id='8592'>0.22016E+02</wgt>
<wgt id='8593'>0.22006E+02</wgt>
<wgt id='8594'>0.22013E+02</wgt>
<wgt id='8595'>0.22014E+02</wgt>
<wgt id='8596'>0.22010E+02</wgt>
<wgt id='8597'>0.22010E+02</wgt>
<wgt id='8598'>0.22014E+02</wgt>
<wgt id='8599'>0.22015E+02</wgt>
<wgt id='8600'>0.22013E+02</wgt>
<wgt id='8601'>0.21668E+02</wgt>
<wgt id='8602'>0.22292E+02</wgt>
<wgt id='9000'>0.20941E+02</wgt>
<wgt id='9001'>0.20933E+02</wgt>
<wgt id='9002'>0.21061E+02</wgt>
<wgt id='9003'>0.20733E+02</wgt>
<wgt id='9004'>0.20888E+02</wgt>
<wgt id='9005'>0.21039E+02</wgt>
<wgt id='9006'>0.20879E+02</wgt>
<wgt id='9007'>0.20915E+02</wgt>
<wgt id='9008'>0.20979E+02</wgt>
<wgt id='9009'>0.20923E+02</wgt>
<wgt id='9010'>0.20847E+02</wgt>
<wgt id='9011'>0.21247E+02</wgt>
<wgt id='9012'>0.20741E+02</wgt>
<wgt id='9013'>0.20577E+02</wgt>
<wgt id='9014'>0.20703E+02</wgt>
<wgt id='9015'>0.20924E+02</wgt>
<wgt id='9016'>0.21187E+02</wgt>
<wgt id='9017'>0.20893E+02</wgt>
<wgt id='9018'>0.20891E+02</wgt>
<wgt id='9019'>0.20897E+02</wgt>
<wgt id='9020'>0.21159E+02</wgt>
<wgt id='9021'>0.20940E+02</wgt>
<wgt id='9022'>0.20964E+02</wgt>
<wgt id='9023'>0.20953E+02</wgt>
<wgt id='9024'>0.20912E+02</wgt>
<wgt id='9025'>0.20962E+02</wgt>
<wgt id='9026'>0.20963E+02</wgt>
<wgt id='9027'>0.20886E+02</wgt>
<wgt id='9028'>0.20955E+02</wgt>
<wgt id='9029'>0.20976E+02</wgt>
<wgt id='9030'>0.20938E+02</wgt>
<wgt id='9031'>0.20938E+02</wgt>
<wgt id='9032'>0.20952E+02</wgt>
<wgt id='9033'>0.20964E+02</wgt>
<wgt id='9034'>0.20928E+02</wgt>
<wgt id='9035'>0.20984E+02</wgt>
<wgt id='9036'>0.20937E+02</wgt>
<wgt id='9037'>0.20963E+02</wgt>
<wgt id='9038'>0.20936E+02</wgt>
<wgt id='9039'>0.20935E+02</wgt>
<wgt id='9040'>0.20912E+02</wgt>
<wgt id='9041'>0.20927E+02</wgt>
<wgt id='9042'>0.20926E+02</wgt>
<wgt id='9043'>0.20925E+02</wgt>
<wgt id='9044'>0.20945E+02</wgt>
<wgt id='9045'>0.20934E+02</wgt>
<wgt id='9046'>0.20908E+02</wgt>
<wgt id='9047'>0.20926E+02</wgt>
<wgt id='9048'>0.20946E+02</wgt>
<wgt id='9049'>0.20931E+02</wgt>
<wgt id='9050'>0.20951E+02</wgt>
<wgt id='9051'>0.20945E+02</wgt>
<wgt id='9052'>0.20936E+02</wgt>
<wgt id='9053'>0.20935E+02</wgt>
<wgt id='9054'>0.20928E+02</wgt>
<wgt id='9055'>0.20940E+02</wgt>
<wgt id='9056'>0.20966E+02</wgt>
<wgt id='9057'>0.20942E+02</wgt>
<wgt id='9058'>0.20928E+02</wgt>
<wgt id='9059'>0.20928E+02</wgt>
<wgt id='9060'>0.20927E+02</wgt>
<wgt id='9061'>0.20950E+02</wgt>
<wgt id='9062'>0.20941E+02</wgt>
<wgt id='9063'>0.20954E+02</wgt>
<wgt id='9064'>0.20929E+02</wgt>
<wgt id='9065'>0.20946E+02</wgt>
<wgt id='9066'>0.20950E+02</wgt>
<wgt id='9067'>0.20951E+02</wgt>
<wgt id='9068'>0.20951E+02</wgt>
<wgt id='9069'>0.20944E+02</wgt>
<wgt id='9070'>0.20939E+02</wgt>
<wgt id='9071'>0.20954E+02</wgt>
<wgt id='9072'>0.20950E+02</wgt>
<wgt id='9073'>0.20934E+02</wgt>
<wgt id='9074'>0.20943E+02</wgt>
<wgt id='9075'>0.20940E+02</wgt>
<wgt id='9076'>0.20934E+02</wgt>
<wgt id='9077'>0.20942E+02</wgt>
<wgt id='9078'>0.20935E+02</wgt>
<wgt id='9079'>0.20941E+02</wgt>
<wgt id='9080'>0.20954E+02</wgt>
<wgt id='9081'>0.20934E+02</wgt>
<wgt id='9082'>0.20947E+02</wgt>
<wgt id='9083'>0.20932E+02</wgt>
<wgt id='9084'>0.20939E+02</wgt>
<wgt id='9085'>0.20938E+02</wgt>
<wgt id='9086'>0.20945E+02</wgt>
<wgt id='9087'>0.20933E+02</wgt>
<wgt id='9088'>0.20941E+02</wgt>
<wgt id='9089'>0.20939E+02</wgt>
<wgt id='9090'>0.20945E+02</wgt>
<wgt id='9091'>0.20938E+02</wgt>
<wgt id='9092'>0.20943E+02</wgt>
<wgt id='9093'>0.20939E+02</wgt>
<wgt id='9094'>0.20938E+02</wgt>
<wgt id='9095'>0.20943E+02</wgt>
<wgt id='9096'>0.20940E+02</wgt>
<wgt id='9097'>0.20939E+02</wgt>
<wgt id='9098'>0.20941E+02</wgt>
<wgt id='9099'>0.20935E+02</wgt>
<wgt id='9100'>0.20941E+02</wgt>
<wgt id='9101'>0.20707E+02</wgt>
<wgt id='9102'>0.21110E+02</wgt>
<wgt id='10000'>0.22014E+02</wgt>
<wgt id='10001'>0.22162E+02</wgt>
<wgt id='10002'>0.21991E+02</wgt>
<wgt id='10003'>0.22022E+02</wgt>
<wgt id='10004'>0.21959E+02</wgt>
<wgt id='10005'>0.22683E+02</wgt>
<wgt id='10006'>0.22005E+02</wgt>
<wgt id='10007'>0.22002E+02</wgt>
<wgt id='10008'>0.22063E+02</wgt>
<wgt id='10009'>0.21979E+02</wgt>
<wgt id='10010'>0.22047E+02</wgt>
<wgt id='10011'>0.21990E+02</wgt>
<wgt id='10012'>0.21988E+02</wgt>
<wgt id='10013'>0.22011E+02</wgt>
<wgt id='10014'>0.21999E+02</wgt>
<wgt id='10015'>0.22037E+02</wgt>
<wgt id='10016'>0.21986E+02</wgt>
<wgt id='10017'>0.21942E+02</wgt>
<wgt id='10018'>0.22037E+02</wgt>
<wgt id='10019'>0.21992E+02</wgt>
<wgt id='10020'>0.21988E+02</wgt>
<wgt id='10021'>0.22011E+02</wgt>
<wgt id='10022'>0.21886E+02</wgt>
<wgt id='10023'>0.22020E+02</wgt>
<wgt id='10024'>0.22009E+02</wgt>
<wgt id='10025'>0.21997E+02</wgt>
<wgt id='10026'>0.22056E+02</wgt>
<wgt id='10027'>0.22047E+02</wgt>
<wgt id='10028'>0.22187E+02</wgt>
<wgt id='10029'>0.22033E+02</wgt>
<wgt id='10030'>0.22012E+02</wgt>
<wgt id='10031'>0.21668E+02</wgt>
<wgt id='10032'>0.22292E+02</wgt>
<wgt id='11000'>0.20942E+02</wgt>
<wgt id='11001'>0.20787E+02</wgt>
<wgt id='11002'>0.21047E+02</wgt>
<wgt id='11003'>0.20909E+02</wgt>
<wgt id='11004'>0.21055E+02</wgt>
<wgt id='11005'>0.20515E+02</wgt>
<wgt id='11006'>0.20949E+02</wgt>
<wgt id='11007'>0.20887E+02</wgt>
<wgt id='11008'>0.20875E+02</wgt>
<wgt id='11009'>0.20848E+02</wgt>
<wgt id='11010'>0.20971E+02</wgt>
<wgt id='11011'>0.20824E+02</wgt>
<wgt id='11012'>0.20970E+02</wgt>
<wgt id='11013'>0.21016E+02</wgt>
<wgt id='11014'>0.20885E+02</wgt>
<wgt id='11015'>0.20923E+02</wgt>
<wgt id='11016'>0.20905E+02</wgt>
<wgt id='11017'>0.21155E+02</wgt>
<wgt id='11018'>0.20936E+02</wgt>
<wgt id='11019'>0.20928E+02</wgt>
<wgt id='11020'>0.20994E+02</wgt>
<wgt id='11021'>0.21010E+02</wgt>
<wgt id='11022'>0.21397E+02</wgt>
<wgt id='11023'>0.20942E+02</wgt>
<wgt id='11024'>0.20932E+02</wgt>
<wgt id='11025'>0.20927E+02</wgt>
<wgt id='11026'>0.20950E+02</wgt>
<wgt id='11027'>0.20927E+02</wgt>
<wgt id='11028'>0.20956E+02</wgt>
<wgt id='11029'>0.20976E+02</wgt>
<wgt id='11030'>0.20943E+02</wgt>
<wgt id='11031'>0.20707E+02</wgt>
<wgt id='11032'>0.21110E+02</wgt>
<wgt id='12000'>0.23425E+02</wgt>
<wgt id='12001'>0.23390E+02</wgt>
<wgt id='12002'>0.23460E+02</wgt>
<wgt id='12003'>0.23486E+02</wgt>
<wgt id='12004'>0.23364E+02</wgt>
<wgt id='12005'>0.23485E+02</wgt>
<wgt id='12006'>0.23365E+02</wgt>
<wgt id='12007'>0.23509E+02</wgt>
<wgt id='12008'>0.23343E+02</wgt>
<wgt id='12009'>0.23471E+02</wgt>
<wgt id='12010'>0.23379E+02</wgt>
<wgt id='12011'>0.23322E+02</wgt>
<wgt id='12012'>0.23536E+02</wgt>
<wgt id='12013'>0.23303E+02</wgt>
<wgt id='12014'>0.23548E+02</wgt>
<wgt id='12015'>0.23450E+02</wgt>
<wgt id='12016'>0.23365E+02</wgt>
<wgt id='12017'>0.23551E+02</wgt>
<wgt id='12018'>0.23303E+02</wgt>
<wgt id='12019'>0.23319E+02</wgt>
<wgt id='12020'>0.23522E+02</wgt>
<wgt id='12021'>0.23513E+02</wgt>
<wgt id='12022'>0.23306E+02</wgt>
<wgt id='12023'>0.23267E+02</wgt>
<wgt id='12024'>0.23428E+02</wgt>
<wgt id='12025'>0.23481E+02</wgt>
<wgt id='12026'>0.23416E+02</wgt>
<wgt id='12027'>0.23519E+02</wgt>
<wgt id='12028'>0.23352E+02</wgt>
<wgt id='12050'>0.23425E+02</wgt>
<wgt id='12051'>0.23383E+02</wgt>
<wgt id='12052'>0.23447E+02</wgt>
<wgt id='12053'>0.23370E+02</wgt>
<wgt id='12054'>0.23442E+02</wgt>
<wgt id='12055'>0.23543E+02</wgt>
<wgt id='12056'>0.23260E+02</wgt>
<wgt id='12057'>0.23339E+02</wgt>
<wgt id='12058'>0.23510E+02</wgt>
<wgt id='12059'>0.23398E+02</wgt>
<wgt id='12060'>0.23460E+02</wgt>
<wgt id='12061'>0.23374E+02</wgt>
<wgt id='12062'>0.23469E+02</wgt>
<wgt id='12063'>0.23071E+02</wgt>
<wgt id='13000'>0.21230E+02</wgt>
<wgt id='13001'>0.21210E+02</wgt>
<wgt id='13002'>0.21244E+02</wgt>
<wgt id='13003'>0.21251E+02</wgt>
<wgt id='13004'>0.21203E+02</wgt>
<wgt id='13005'>0.21296E+02</wgt>
<wgt id='13006'>0.21158E+02</wgt>
<wgt id='13007'>0.21344E+02</wgt>
<wgt id='13008'>0.21113E+02</wgt>
<wgt id='13009'>0.21200E+02</wgt>
<wgt id='13010'>0.21255E+02</wgt>
<wgt id='13011'>0.21319E+02</wgt>
<wgt id='13012'>0.21135E+02</wgt>
<wgt id='13013'>0.21142E+02</wgt>
<wgt id='13014'>0.21312E+02</wgt>
<wgt id='13015'>0.21185E+02</wgt>
<wgt id='13016'>0.21240E+02</wgt>
<wgt id='13017'>0.21209E+02</wgt>
<wgt id='13018'>0.21240E+02</wgt>
<wgt id='13019'>0.21145E+02</wgt>
<wgt id='13020'>0.21307E+02</wgt>
<wgt id='13021'>0.21035E+02</wgt>
<wgt id='13022'>0.21379E+02</wgt>
<wgt id='13023'>0.21253E+02</wgt>
<wgt id='13024'>0.21203E+02</wgt>
<wgt id='13025'>0.21128E+02</wgt>
<wgt id='13026'>0.21268E+02</wgt>
<wgt id='13027'>0.21238E+02</wgt>
<wgt id='13028'>0.21242E+02</wgt>
<wgt id='13050'>0.21230E+02</wgt>
<wgt id='13051'>0.21226E+02</wgt>
<wgt id='13052'>0.21147E+02</wgt>
<wgt id='13053'>0.21203E+02</wgt>
<wgt id='13054'>0.21222E+02</wgt>
<wgt id='13055'>0.21245E+02</wgt>
<wgt id='13056'>0.21085E+02</wgt>
<wgt id='13057'>0.21150E+02</wgt>
<wgt id='13058'>0.21357E+02</wgt>
<wgt id='13059'>0.21172E+02</wgt>
<wgt id='13060'>0.21253E+02</wgt>
<wgt id='13061'>0.21151E+02</wgt>
<wgt id='13062'>0.21437E+02</wgt>
<wgt id='13063'>0.21055E+02</wgt>
<wgt id='14000'>0.21632E+02</wgt>
<wgt id='14001'>0.21629E+02</wgt>
<wgt id='14002'>0.21625E+02</wgt>
<wgt id='14003'>0.21621E+02</wgt>
<wgt id='14004'>0.21618E+02</wgt>
<wgt id='14005'>0.21614E+02</wgt>
<wgt id='14006'>0.21610E+02</wgt>
<wgt id='14007'>0.21607E+02</wgt>
<wgt id='14008'>0.21603E+02</wgt>
<wgt id='14009'>0.21599E+02</wgt>
<wgt id='14010'>0.21596E+02</wgt>
<wgt id='14011'>0.21592E+02</wgt>
<wgt id='14012'>0.21588E+02</wgt>
<wgt id='14013'>0.21585E+02</wgt>
<wgt id='14014'>0.21581E+02</wgt>
<wgt id='14015'>0.21577E+02</wgt>
<wgt id='14016'>0.21573E+02</wgt>
<wgt id='14017'>0.21570E+02</wgt>
<wgt id='14018'>0.21566E+02</wgt>
<wgt id='14019'>0.21562E+02</wgt>
<wgt id='14020'>0.21559E+02</wgt>
<wgt id='14021'>0.21555E+02</wgt>
<wgt id='14022'>0.21551E+02</wgt>
<wgt id='14023'>0.21548E+02</wgt>
<wgt id='14024'>0.21544E+02</wgt>
<wgt id='14025'>0.21540E+02</wgt>
<wgt id='14026'>0.21537E+02</wgt>
<wgt id='14027'>0.21533E+02</wgt>
<wgt id='14028'>0.21529E+02</wgt>
<wgt id='14029'>0.21526E+02</wgt>
<wgt id='14030'>0.21522E+02</wgt>
<wgt id='15000'>0.20679E+02</wgt>
<wgt id='15001'>0.20667E+02</wgt>
<wgt id='15002'>0.20796E+02</wgt>
<wgt id='15003'>0.20475E+02</wgt>
<wgt id='15004'>0.20627E+02</wgt>
<wgt id='15005'>0.20777E+02</wgt>
<wgt id='15006'>0.20622E+02</wgt>
<wgt id='15007'>0.20658E+02</wgt>
<wgt id='15008'>0.20718E+02</wgt>
<wgt id='15009'>0.20662E+02</wgt>
<wgt id='15010'>0.20586E+02</wgt>
<wgt id='15011'>0.20986E+02</wgt>
<wgt id='15012'>0.20484E+02</wgt>
<wgt id='15013'>0.20323E+02</wgt>
<wgt id='15014'>0.20444E+02</wgt>
<wgt id='15015'>0.20655E+02</wgt>
<wgt id='15016'>0.20927E+02</wgt>
<wgt id='15017'>0.20630E+02</wgt>
<wgt id='15018'>0.20630E+02</wgt>
<wgt id='15019'>0.20640E+02</wgt>
<wgt id='15020'>0.20899E+02</wgt>
<wgt id='15021'>0.20676E+02</wgt>
<wgt id='15022'>0.20703E+02</wgt>
<wgt id='15023'>0.20692E+02</wgt>
<wgt id='15024'>0.20648E+02</wgt>
<wgt id='15025'>0.20697E+02</wgt>
<wgt id='15026'>0.20698E+02</wgt>
<wgt id='15027'>0.20629E+02</wgt>
<wgt id='15028'>0.20696E+02</wgt>
<wgt id='15029'>0.20712E+02</wgt>
<wgt id='15030'>0.20676E+02</wgt>
<wgt id='15031'>0.20680E+02</wgt>
<wgt id='15032'>0.20689E+02</wgt>
<wgt id='15033'>0.20702E+02</wgt>
<wgt id='15034'>0.20667E+02</wgt>
<wgt id='15035'>0.20722E+02</wgt>
<wgt id='15036'>0.20676E+02</wgt>
<wgt id='15037'>0.20702E+02</wgt>
<wgt id='15038'>0.20674E+02</wgt>
<wgt id='15039'>0.20672E+02</wgt>
<wgt id='15040'>0.20650E+02</wgt>
<wgt id='15041'>0.20665E+02</wgt>
<wgt id='15042'>0.20665E+02</wgt>
<wgt id='15043'>0.20665E+02</wgt>
<wgt id='15044'>0.20683E+02</wgt>
<wgt id='15045'>0.20672E+02</wgt>
<wgt id='15046'>0.20648E+02</wgt>
<wgt id='15047'>0.20664E+02</wgt>
<wgt id='15048'>0.20685E+02</wgt>
<wgt id='15049'>0.20669E+02</wgt>
<wgt id='15050'>0.20690E+02</wgt>
<wgt id='15051'>0.20683E+02</wgt>
<wgt id='15052'>0.20675E+02</wgt>
<wgt id='15053'>0.20674E+02</wgt>
<wgt id='15054'>0.20667E+02</wgt>
<wgt id='15055'>0.20679E+02</wgt>
<wgt id='15056'>0.20704E+02</wgt>
<wgt id='15057'>0.20681E+02</wgt>
<wgt id='15058'>0.20668E+02</wgt>
<wgt id='15059'>0.20667E+02</wgt>
<wgt id='15060'>0.20667E+02</wgt>
<wgt id='15061'>0.20689E+02</wgt>
<wgt id='15062'>0.20680E+02</wgt>
<wgt id='15063'>0.20692E+02</wgt>
<wgt id='15064'>0.20668E+02</wgt>
<wgt id='15065'>0.20685E+02</wgt>
<wgt id='15066'>0.20689E+02</wgt>
<wgt id='15067'>0.20689E+02</wgt>
<wgt id='15068'>0.20690E+02</wgt>
<wgt id='15069'>0.20682E+02</wgt>
<wgt id='15070'>0.20677E+02</wgt>
<wgt id='15071'>0.20693E+02</wgt>
<wgt id='15072'>0.20688E+02</wgt>
<wgt id='15073'>0.20673E+02</wgt>
<wgt id='15074'>0.20682E+02</wgt>
<wgt id='15075'>0.20679E+02</wgt>
<wgt id='15076'>0.20674E+02</wgt>
<wgt id='15077'>0.20681E+02</wgt>
<wgt id='15078'>0.20674E+02</wgt>
<wgt id='15079'>0.20679E+02</wgt>
<wgt id='15080'>0.20692E+02</wgt>
<wgt id='15081'>0.20674E+02</wgt>
<wgt id='15082'>0.20686E+02</wgt>
<wgt id='15083'>0.20671E+02</wgt>
<wgt id='15084'>0.20678E+02</wgt>
<wgt id='15085'>0.20677E+02</wgt>
<wgt id='15086'>0.20685E+02</wgt>
<wgt id='15087'>0.20671E+02</wgt>
<wgt id='15088'>0.20679E+02</wgt>
<wgt id='15089'>0.20677E+02</wgt>
<wgt id='15090'>0.20683E+02</wgt>
<wgt id='15091'>0.20676E+02</wgt>
<wgt id='15092'>0.20681E+02</wgt>
<wgt id='15093'>0.20677E+02</wgt>
<wgt id='15094'>0.20676E+02</wgt>
<wgt id='15095'>0.20681E+02</wgt>
<wgt id='15096'>0.20679E+02</wgt>
<wgt id='15097'>0.20678E+02</wgt>
<wgt id='15098'>0.20680E+02</wgt>
<wgt id='15099'>0.20674E+02</wgt>
<wgt id='15100'>0.20680E+02</wgt>
<wgt id='15101'>0.20679E+02</wgt>
<wgt id='15102'>0.20677E+02</wgt>
<wgt id='15103'>0.20680E+02</wgt>
<wgt id='15104'>0.20680E+02</wgt>
<wgt id='15105'>0.20680E+02</wgt>
<wgt id='15106'>0.20679E+02</wgt>
<wgt id='15107'>0.20678E+02</wgt>
<wgt id='1500'>0.22053E+02</wgt>
<wgt id='1501'>0.20226E+02</wgt>
<wgt id='1502'>0.22001E+02</wgt>
<wgt id='1503'>0.22142E+02</wgt>
<wgt id='1504'>0.21648E+02</wgt>
<wgt id='1505'>0.19234E+02</wgt>
<wgt id='1506'>0.22271E+02</wgt>
<wgt id='1507'>0.22339E+02</wgt>
<wgt id='1508'>0.22286E+02</wgt>
<wgt id='1509'>0.22161E+02</wgt>
<wgt id='1510'>0.21399E+02</wgt>
<wgt id='1511'>0.21026E+02</wgt>
<wgt id='1512'>0.22544E+02</wgt>
<wgt id='1513'>0.22407E+02</wgt>
<wgt id='1514'>0.21335E+02</wgt>
<wgt id='1515'>0.22344E+02</wgt>
<wgt id='1516'>0.22516E+02</wgt>
<wgt id='1517'>0.21456E+02</wgt>
<wgt id='1518'>0.21944E+02</wgt>
<wgt id='1519'>0.22505E+02</wgt>
<wgt id='1520'>0.22754E+02</wgt>
<wgt id='1521'>0.22145E+02</wgt>
<wgt id='1522'>0.22055E+02</wgt>
<wgt id='1523'>0.24149E+02</wgt>
<wgt id='1524'>0.22106E+02</wgt>
<wgt id='1525'>0.22299E+02</wgt>
<wgt id='1526'>0.21784E+02</wgt>
<wgt id='1527'>0.21577E+02</wgt>
<wgt id='1528'>0.21592E+02</wgt>
<wgt id='1529'>0.21840E+02</wgt>
<wgt id='1530'>0.22716E+02</wgt>
<wgt id='1531'>0.21968E+02</wgt>
<wgt id='1532'>0.21236E+02</wgt>
<wgt id='1533'>0.22182E+02</wgt>
<wgt id='1534'>0.22146E+02</wgt>
<wgt id='1535'>0.22624E+02</wgt>
<wgt id='1536'>0.22729E+02</wgt>
<wgt id='1537'>0.22371E+02</wgt>
<wgt id='1538'>0.22533E+02</wgt>
<wgt id='1539'>0.21399E+02</wgt>
<wgt id='1540'>0.22382E+02</wgt>
<wgt id='1541'>0.22297E+02</wgt>
<wgt id='1542'>0.22068E+02</wgt>
<wgt id='1543'>0.22376E+02</wgt>
<wgt id='1544'>0.21975E+02</wgt>
<wgt id='1545'>0.22409E+02</wgt>
<wgt id='1546'>0.22704E+02</wgt>
<wgt id='1547'>0.21657E+02</wgt>
<wgt id='1548'>0.21666E+02</wgt>
<wgt id='1549'>0.21972E+02</wgt>
<wgt id='1550'>0.22049E+02</wgt>
<wgt id='1551'>0.22037E+02</wgt>
<wgt id='1552'>0.21932E+02</wgt>
<wgt id='1553'>0.22329E+02</wgt>
<wgt id='1554'>0.21880E+02</wgt>
<wgt id='1555'>0.21945E+02</wgt>
<wgt id='1556'>0.21382E+02</wgt>
<wgt id='1557'>0.22951E+02</wgt>
<wgt id='1558'>0.21738E+02</wgt>
<wgt id='1559'>0.22461E+02</wgt>
<wgt id='1560'>0.22120E+02</wgt>
<wgt id='1561'>0.22138E+02</wgt>
<wgt id='1562'>0.22266E+02</wgt>
<wgt id='1563'>0.21998E+02</wgt>
<wgt id='1564'>0.21495E+02</wgt>
<wgt id='1565'>0.22204E+02</wgt>
<wgt id='1566'>0.22086E+02</wgt>
<wgt id='1567'>0.23717E+02</wgt>
<wgt id='1568'>0.21606E+02</wgt>
<wgt id='1569'>0.21161E+02</wgt>
<wgt id='1570'>0.21794E+02</wgt>
<wgt id='1571'>0.22694E+02</wgt>
<wgt id='1572'>0.22142E+02</wgt>
<wgt id='1573'>0.20381E+02</wgt>
<wgt id='1574'>0.22016E+02</wgt>
<wgt id='1575'>0.21955E+02</wgt>
<wgt id='1576'>0.21523E+02</wgt>
<wgt id='1577'>0.22263E+02</wgt>
<wgt id='1578'>0.22611E+02</wgt>
<wgt id='1579'>0.21996E+02</wgt>
<wgt id='1580'>0.22132E+02</wgt>
<wgt id='1581'>0.22342E+02</wgt>
<wgt id='1582'>0.21765E+02</wgt>
<wgt id='1583'>0.22364E+02</wgt>
<wgt id='1584'>0.22135E+02</wgt>
<wgt id='1585'>0.21388E+02</wgt>
<wgt id='1586'>0.21773E+02</wgt>
<wgt id='1587'>0.21975E+02</wgt>
<wgt id='1588'>0.21943E+02</wgt>
<wgt id='1589'>0.22780E+02</wgt>
<wgt id='1590'>0.21843E+02</wgt>
<wgt id='1591'>0.21676E+02</wgt>
<wgt id='1592'>0.22588E+02</wgt>
<wgt id='1593'>0.21939E+02</wgt>
<wgt id='1594'>0.22569E+02</wgt>
<wgt id='1595'>0.21322E+02</wgt>
<wgt id='1596'>0.22421E+02</wgt>
<wgt id='1597'>0.22165E+02</wgt>
<wgt id='1598'>0.23330E+02</wgt>
<wgt id='1599'>0.22632E+02</wgt>
<wgt id='1600'>0.22218E+02</wgt>
<wgt id='1601'>0.21792E+02</wgt>
<wgt id='1602'>0.22165E+02</wgt>
<wgt id='1700'>0.21252E+02</wgt>
<wgt id='1800'>0.24800E+02</wgt>
<wgt id='1850'>0.29258E+02</wgt>
<wgt id='1900'>0.25101E+02</wgt>
<wgt id='1950'>0.28160E+02</wgt>
</rwgt>
</event>
<event>
      4   9999  2.16956E+01  1.19288E+01 -1.00000E+00  1.83609E-01
      21    -1     0     0   502   501  0.000000000E+00  0.000000000E+00  7.860767139E+01  7.860767139E+01  0.000000000E+00  0.00000E+00  9.000E+00
      21    -1     0     0   511   502  0.000000000E+00  0.000000000E+00 -6.824065980E+01  6.824065980E+01  0.000000000E+00  0.00000E+00  9.000E+00
      25     1     1     2     0     0 -1.133825661E+01  3.706886144E+00  2.493554165E+01  1.280191215E+02  1.249992687E+02  0.00000E+00  9.000E+00
      21     1     1     2   511   501  1.133825661E+01 -3.706886144E+00 -1.456853006E+01  1.882920965E+01  3.769728732E-07  0.00000E+00  9.000E+00
#rwgt            1           1   19.218623167016204                1        7218           0
<rwgt>
<wgt id='1001'>0.21696E+02</wgt>
<wgt id='1002'>0.18425E+02</wgt>
<wgt id='1003'>0.24779E+02</wgt>
<wgt id='1004'>0.20492E+02</wgt>
<wgt id='1005'>0.18217E+02</wgt>
<wgt id='1006'>0.22551E+02</wgt>
<wgt id='1007'>0.22181E+02</wgt>
<wgt id='1008'>0.17362E+02</wgt>
<wgt id='1009'>0.26880E+02</wgt>
<wgt id='2000'>0.21696E+02</wgt>
<wgt id='2001'>0.21665E+02</wgt>
<wgt id='2002'>0.21813E+02</wgt>
<wgt id='2003'>0.21816E+02</wgt>
<wgt id='2004'>0.21721E+02</wgt>
<wgt id='2005'>0.21612E+02</wgt>
<wgt id='2006'>0.21608E+02</wgt>
<wgt id='2007'>0.21543E+02</wgt>
<wgt id='2008'>0.21612E+02</wgt>
<wgt id='2009'>0.21734E+02</wgt>
<wgt id='2010'>0.21683E+02</wgt>
<wgt id='2011'>0.21844E+02</wgt>
<wgt id='2012'>0.21878E+02</wgt>
<wgt id='2013'>0.22000E+02</wgt>
<wgt id='2014'>0.21845E+02</wgt>
<wgt id='2015'>0.21782E+02</wgt>
<wgt id='2016'>0.21619E+02</wgt>
<wgt id='2017'>0.21699E+02</wgt>
<wgt id='2018'>0.21853E+02</wgt>
<wgt id='2019'>0.21677E+02</wgt>
<wgt id='2020'>0.21832E+02</wgt>
<wgt id='2021'>0.21623E+02</wgt>
<wgt id='2022'>0.21760E+02</wgt>
<wgt id='2023'>0.21732E+02</wgt>
<wgt id='2024'>0.21735E+02</wgt>
<wgt id='2025'>0.21739E+02</wgt>
<wgt id='2026'>0.21707E+02</wgt>
<wgt id='2027'>0.21691E+02</wgt>
<wgt id='2028'>0.21689E+02</wgt>
<wgt id='2029'>0.21669E+02</wgt>
<wgt id='2030'>0.21706E+02</wgt>
<wgt id='2031'>0.21706E+02</wgt>
<wgt id='2032'>0.21678E+02</wgt>
<wgt id='2033'>0.21692E+02</wgt>
<wgt id='2034'>0.21701E+02</wgt>
<wgt id='2035'>0.21700E+02</wgt>
<wgt id='2036'>0.21717E+02</wgt>
<wgt id='2037'>0.21690E+02</wgt>
<wgt id='2038'>0.21701E+02</wgt>
<wgt id='2039'>0.21693E+02</wgt>
<wgt id='2040'>0.21714E+02</wgt>
<wgt id='2041'>0.21716E+02</wgt>
<wgt id='2042'>0.21701E+02</wgt>
<wgt id='2043'>0.21694E+02</wgt>
<wgt id='2044'>0.21693E+02</wgt>
<wgt id='2045'>0.21701E+02</wgt>
<wgt id='2046'>0.21685E+02</wgt>
<wgt id='2047'>0.21694E+02</wgt>
<wgt id='2048'>0.21699E+02</wgt>
<wgt id='2049'>0.21696E+02</wgt>
<wgt id='2050'>0.21688E+02</wgt>
<wgt id='2051'>0.21699E+02</wgt>
<wgt id='2052'>0.21701E+02</wgt>
<wgt id='2053'>0.21694E+02</wgt>
<wgt id='2054'>0.21689E+02</wgt>
<wgt id='2055'>0.21694E+02</wgt>
<wgt id='2056'>0.21696E+02</wgt>
<wgt id='2057'>0.21698E+02</wgt>
<wgt id='2058'>0.21701E+02</wgt>
<wgt id='2059'>0.21694E+02</wgt>
<wgt id='2060'>0.21691E+02</wgt>
<wgt id='2061'>0.21691E+02</wgt>
<wgt id='2062'>0.21692E+02</wgt>
<wgt id='2063'>0.21699E+02</wgt>
<wgt id='2064'>0.21692E+02</wgt>
<wgt id='2065'>0.21699E+02</wgt>
<wgt id='2066'>0.21693E+02</wgt>
<wgt id='2067'>0.21696E+02</wgt>
<wgt id='2068'>0.21694E+02</wgt>
<wgt id='2069'>0.21694E+02</wgt>
<wgt id='2070'>0.21695E+02</wgt>
<wgt id='2071'>0.21693E+02</wgt>
<wgt id='2072'>0.21699E+02</wgt>
<wgt id='2073'>0.21696E+02</wgt>
<wgt id='2074'>0.21695E+02</wgt>
<wgt id='2075'>0.21695E+02</wgt>
<wgt id='2076'>0.21697E+02</wgt>
<wgt id='2077'>0.21694E+02</wgt>
<wgt id='2078'>0.21693E+02</wgt>
<wgt id='2079'>0.21696E+02</wgt>
<wgt id='2080'>0.21694E+02</wgt>
<wgt id='2081'>0.21695E+02</wgt>
<wgt id='2082'>0.21693E+02</wgt>
<wgt id='2083'>0.21697E+02</wgt>
<wgt id='2084'>0.21694E+02</wgt>
<wgt id='2085'>0.21696E+02</wgt>
<wgt id='2086'>0.21692E+02</wgt>
<wgt id='2087'>0.21694E+02</wgt>
<wgt id='2088'>0.21695E+02</wgt>
<wgt id='2089'>0.21693E+02</wgt>
<wgt id='2090'>0.21698E+02</wgt>
<wgt id='2091'>0.21694E+02</wgt>
<wgt id='2092'>0.21693E+02</wgt>
<wgt id='2093'>0.21697E+02</wgt>
<wgt id='2094'>0.21696E+02</wgt>
<wgt id='2095'>0.21697E+02</wgt>
<wgt id='2096'>0.21697E+02</wgt>
<wgt id='2097'>0.21694E+02</wgt>
<wgt id='2098'>0.21697E+02</wgt>
<wgt id='2099'>0.21696E+02</wgt>
<wgt id='2100'>0.21695E+02</wgt>
<wgt id='2101'>0.21361E+02</wgt>
<wgt id='2102'>0.21880E+02</wgt>
<wgt id='2104'>0.20383E+02</wgt>
<wgt id='2105'>0.20532E+02</wgt>
<wgt id='2106'>0.20845E+02</wgt>
<wgt id='2107'>0.21247E+02</wgt>
<wgt id='2108'>0.21638E+02</wgt>
<wgt id='2109'>0.21884E+02</wgt>
<wgt id='2110'>0.22053E+02</wgt>
<wgt id='2111'>0.22279E+02</wgt>
<wgt id='3000'>0.22463E+02</wgt>
<wgt id='3001'>0.22567E+02</wgt>
<wgt id='3002'>0.22351E+02</wgt>
<wgt id='3003'>0.22595E+02</wgt>
<wgt id='3004'>0.22518E+02</wgt>
<wgt id='3005'>0.22638E+02</wgt>
<wgt id='3006'>0.22513E+02</wgt>
<wgt id='3007'>0.22556E+02</wgt>
<wgt id='3008'>0.22364E+02</wgt>
<wgt id='3009'>0.22447E+02</wgt>
<wgt id='3010'>0.22341E+02</wgt>
<wgt id='3011'>0.22535E+02</wgt>
<wgt id='3012'>0.22709E+02</wgt>
<wgt id='3013'>0.22193E+02</wgt>
<wgt id='3014'>0.22617E+02</wgt>
<wgt id='3015'>0.22584E+02</wgt>
<wgt id='3016'>0.22479E+02</wgt>
<wgt id='3017'>0.22632E+02</wgt>
<wgt id='3018'>0.22517E+02</wgt>
<wgt id='3019'>0.22310E+02</wgt>
<wgt id='3020'>0.22411E+02</wgt>
<wgt id='3021'>0.22335E+02</wgt>
<wgt id='3022'>0.22454E+02</wgt>
<wgt id='3023'>0.22414E+02</wgt>
<wgt id='3024'>0.22439E+02</wgt>
<wgt id='3025'>0.22463E+02</wgt>
<wgt id='3026'>0.22496E+02</wgt>
<wgt id='3027'>0.22472E+02</wgt>
<wgt id='3028'>0.22429E+02</wgt>
<wgt id='3029'>0.22484E+02</wgt>
<wgt id='3030'>0.22444E+02</wgt>
<wgt id='3031'>0.22449E+02</wgt>
<wgt id='3032'>0.22480E+02</wgt>
<wgt id='3033'>0.22476E+02</wgt>
<wgt id='3034'>0.22474E+02</wgt>
<wgt id='3035'>0.22468E+02</wgt>
<wgt id='3036'>0.22459E+02</wgt>
<wgt id='3037'>0.22464E+02</wgt>
<wgt id='3038'>0.22462E+02</wgt>
<wgt id='3039'>0.22429E+02</wgt>
<wgt id='3040'>0.22464E+02</wgt>
<wgt id='3041'>0.22476E+02</wgt>
<wgt id='3042'>0.22472E+02</wgt>
<wgt id='3043'>0.22476E+02</wgt>
<wgt id='3044'>0.22447E+02</wgt>
<wgt id='3045'>0.22460E+02</wgt>
<wgt id='3046'>0.22462E+02</wgt>
<wgt id='3047'>0.22464E+02</wgt>
<wgt id='3048'>0.22459E+02</wgt>
<wgt id='3049'>0.22467E+02</wgt>
<wgt id='3050'>0.22472E+02</wgt>
<wgt id='3051'>0.22454E+02</wgt>
<wgt id='3052'>0.22460E+02</wgt>
<wgt id='3053'>0.22464E+02</wgt>
<wgt id='3054'>0.22460E+02</wgt>
<wgt id='3055'>0.22453E+02</wgt>
<wgt id='3056'>0.22461E+02</wgt>
<wgt id='3057'>0.22456E+02</wgt>
<wgt id='3058'>0.22459E+02</wgt>
<wgt id='3059'>0.22461E+02</wgt>
<wgt id='3060'>0.22464E+02</wgt>
<wgt id='3061'>0.22462E+02</wgt>
<wgt id='3062'>0.22467E+02</wgt>
<wgt id='3063'>0.22469E+02</wgt>
<wgt id='3064'>0.22465E+02</wgt>
<wgt id='3065'>0.22464E+02</wgt>
<wgt id='3066'>0.22466E+02</wgt>
<wgt id='3067'>0.22463E+02</wgt>
<wgt id='3068'>0.22462E+02</wgt>
<wgt id='3069'>0.22461E+02</wgt>
<wgt id='3070'>0.22463E+02</wgt>
<wgt id='3071'>0.22464E+02</wgt>
<wgt id='3072'>0.22468E+02</wgt>
<wgt id='3073'>0.22460E+02</wgt>
<wgt id='3074'>0.22462E+02</wgt>
<wgt id='3075'>0.22464E+02</wgt>
<wgt id='3076'>0.22460E+02</wgt>
<wgt id='3077'>0.22463E+02</wgt>
<wgt id='3078'>0.22462E+02</wgt>
<wgt id='3079'>0.22464E+02</wgt>
<wgt id='3080'>0.22461E+02</wgt>
<wgt id='3081'>0.22460E+02</wgt>
<wgt id='3082'>0.22464E+02</wgt>
<wgt id='3083'>0.22459E+02</wgt>
<wgt id='3084'>0.22460E+02</wgt>
<wgt id='3085'>0.22464E+02</wgt>
<wgt id='3086'>0.22463E+02</wgt>
<wgt id='3087'>0.22459E+02</wgt>
<wgt id='3088'>0.22463E+02</wgt>
<wgt id='3089'>0.22463E+02</wgt>
<wgt id='3090'>0.22465E+02</wgt>
<wgt id='3091'>0.22464E+02</wgt>
<wgt id='3092'>0.22463E+02</wgt>
<wgt id='3093'>0.22465E+02</wgt>
<wgt id='3094'>0.22464E+02</wgt>
<wgt id='3095'>0.22462E+02</wgt>
<wgt id='3096'>0.22463E+02</wgt>
<wgt id='3097'>0.22463E+02</wgt>
<wgt id='3098'>0.22462E+02</wgt>
<wgt id='3099'>0.22460E+02</wgt>
<wgt id='3100'>0.22466E+02</wgt>
<wgt id='3101'>0.22184E+02</wgt>
<wgt id='3102'>0.22842E+02</wgt>
<wgt id='5000'>0.20731E+02</wgt>
<wgt id='5001'>0.20596E+02</wgt>
<wgt id='5002'>0.20671E+02</wgt>
<wgt id='5003'>0.20516E+02</wgt>
<wgt id='5004'>0.20808E+02</wgt>
<wgt id='5005'>0.19962E+02</wgt>
<wgt id='5006'>0.21365E+02</wgt>
<wgt id='5007'>0.20954E+02</wgt>
<wgt id='5008'>0.20255E+02</wgt>
<wgt id='5009'>0.21189E+02</wgt>
<wgt id='5010'>0.20497E+02</wgt>
<wgt id='5011'>0.20623E+02</wgt>
<wgt id='5012'>0.20752E+02</wgt>
<wgt id='5013'>0.19881E+02</wgt>
<wgt id='5014'>0.20809E+02</wgt>
<wgt id='5015'>0.21004E+02</wgt>
<wgt id='5016'>0.19921E+02</wgt>
<wgt id='5017'>0.20841E+02</wgt>
<wgt id='5018'>0.20607E+02</wgt>
<wgt id='5019'>0.20647E+02</wgt>
<wgt id='5020'>0.20794E+02</wgt>
<wgt id='5021'>0.20843E+02</wgt>
<wgt id='5022'>0.20658E+02</wgt>
<wgt id='5023'>0.20697E+02</wgt>
<wgt id='5024'>0.20757E+02</wgt>
<wgt id='5025'>0.20668E+02</wgt>
<wgt id='5026'>0.20782E+02</wgt>
<wgt id='5027'>0.21053E+02</wgt>
<wgt id='5028'>0.20191E+02</wgt>
<wgt id='5029'>0.20124E+02</wgt>
<wgt id='5030'>0.21097E+02</wgt>
<wgt id='5031'>0.20377E+02</wgt>
<wgt id='5032'>0.21244E+02</wgt>
<wgt id='5033'>0.20518E+02</wgt>
<wgt id='5034'>0.20906E+02</wgt>
<wgt id='5035'>0.20245E+02</wgt>
<wgt id='5036'>0.21122E+02</wgt>
<wgt id='5037'>0.20801E+02</wgt>
<wgt id='5038'>0.20631E+02</wgt>
<wgt id='5039'>0.21150E+02</wgt>
<wgt id='5040'>0.20524E+02</wgt>
<wgt id='5041'>0.20357E+02</wgt>
<wgt id='5042'>0.20801E+02</wgt>
<wgt id='5043'>0.20994E+02</wgt>
<wgt id='5044'>0.19870E+02</wgt>
<wgt id='5045'>0.21904E+02</wgt>
<wgt id='5046'>0.20434E+02</wgt>
<wgt id='5047'>0.21137E+02</wgt>
<wgt id='5048'>0.20788E+02</wgt>
<wgt id='5049'>0.20754E+02</wgt>
<wgt id='5050'>0.20764E+02</wgt>
<wgt id='5051'>0.20805E+02</wgt>
<wgt id='5052'>0.20708E+02</wgt>
<wgt id='5053'>0.20836E+02</wgt>
<wgt id='5054'>0.21638E+02</wgt>
<wgt id='5055'>0.20592E+02</wgt>
<wgt id='5056'>0.20843E+02</wgt>
<wgt id='5060'>0.20529E+02</wgt>
<wgt id='5070'>0.20804E+02</wgt>
<wgt id='4000'>0.21919E+02</wgt>
<wgt id='4001'>0.21955E+02</wgt>
<wgt id='4002'>0.21990E+02</wgt>
<wgt id='4003'>0.22912E+02</wgt>
<wgt id='4004'>0.21514E+02</wgt>
<wgt id='4005'>0.22008E+02</wgt>
<wgt id='4006'>0.21819E+02</wgt>
<wgt id='4007'>0.22431E+02</wgt>
<wgt id='4008'>0.21728E+02</wgt>
<wgt id='4009'>0.21198E+02</wgt>
<wgt id='4010'>0.22403E+02</wgt>
<wgt id='4011'>0.22402E+02</wgt>
<wgt id='4012'>0.21654E+02</wgt>
<wgt id='4013'>0.20675E+02</wgt>
<wgt id='4014'>0.22628E+02</wgt>
<wgt id='4015'>0.22094E+02</wgt>
<wgt id='4016'>0.21811E+02</wgt>
<wgt id='4017'>0.21707E+02</wgt>
<wgt id='4018'>0.22173E+02</wgt>
<wgt id='4019'>0.22339E+02</wgt>
<wgt id='4020'>0.21449E+02</wgt>
<wgt id='4021'>0.22013E+02</wgt>
<wgt id='4022'>0.21718E+02</wgt>
<wgt id='4023'>0.21739E+02</wgt>
<wgt id='4024'>0.22074E+02</wgt>
<wgt id='4025'>0.21370E+02</wgt>
<wgt id='4026'>0.22424E+02</wgt>
<wgt id='4027'>0.21789E+02</wgt>
<wgt id='4028'>0.22091E+02</wgt>
<wgt id='4029'>0.21636E+02</wgt>
<wgt id='4030'>0.22016E+02</wgt>
<wgt id='4031'>0.21968E+02</wgt>
<wgt id='4032'>0.21854E+02</wgt>
<wgt id='4033'>0.21906E+02</wgt>
<wgt id='4034'>0.21937E+02</wgt>
<wgt id='4035'>0.22490E+02</wgt>
<wgt id='4036'>0.21367E+02</wgt>
<wgt id='4037'>0.22254E+02</wgt>
<wgt id='4038'>0.21377E+02</wgt>
<wgt id='4039'>0.21929E+02</wgt>
<wgt id='4040'>0.21838E+02</wgt>
<wgt id='4041'>0.22231E+02</wgt>
<wgt id='4042'>0.21619E+02</wgt>
<wgt id='4043'>0.22403E+02</wgt>
<wgt id='4044'>0.21418E+02</wgt>
<wgt id='4045'>0.21395E+02</wgt>
<wgt id='4046'>0.21767E+02</wgt>
<wgt id='4047'>0.21447E+02</wgt>
<wgt id='4048'>0.22341E+02</wgt>
<wgt id='4049'>0.22110E+02</wgt>
<wgt id='4050'>0.21209E+02</wgt>
<wgt id='4051'>0.21834E+02</wgt>
<wgt id='4052'>0.21832E+02</wgt>
<wgt id='4053'>0.21433E+02</wgt>
<wgt id='4054'>0.22120E+02</wgt>
<wgt id='4055'>0.21689E+02</wgt>
<wgt id='4056'>0.22131E+02</wgt>
<wgt id='4060'>0.21583E+02</wgt>
<wgt id='4070'>0.22156E+02</wgt>
<wgt id='4080'>0.20620E+02</wgt>
<wgt id='6000'>0.22466E+02</wgt>
<wgt id='6001'>0.22472E+02</wgt>
<wgt id='6002'>0.22461E+02</wgt>
<wgt id='6003'>0.22468E+02</wgt>
<wgt id='6004'>0.22465E+02</wgt>
<wgt id='6005'>0.22530E+02</wgt>
<wgt id='6006'>0.22408E+02</wgt>
<wgt id='6007'>0.22349E+02</wgt>
<wgt id='6008'>0.22598E+02</wgt>
<wgt id='6009'>0.22556E+02</wgt>
<wgt id='6010'>0.22379E+02</wgt>
<wgt id='6011'>0.22527E+02</wgt>
<wgt id='6012'>0.22335E+02</wgt>
<wgt id='6013'>0.22436E+02</wgt>
<wgt id='6014'>0.22522E+02</wgt>
<wgt id='6015'>0.22376E+02</wgt>
<wgt id='6016'>0.22517E+02</wgt>
<wgt id='6017'>0.22307E+02</wgt>
<wgt id='6018'>0.22655E+02</wgt>
<wgt id='6019'>0.22512E+02</wgt>
<wgt id='6020'>0.22428E+02</wgt>
<wgt id='6021'>0.22401E+02</wgt>
<wgt id='6022'>0.22554E+02</wgt>
<wgt id='6023'>0.22270E+02</wgt>
<wgt id='6024'>0.22604E+02</wgt>
<wgt id='6025'>0.22020E+02</wgt>
<wgt id='6026'>0.22886E+02</wgt>
<wgt id='6027'>0.22540E+02</wgt>
<wgt id='6028'>0.22472E+02</wgt>
<wgt id='6029'>0.22692E+02</wgt>
<wgt id='6030'>0.22203E+02</wgt>
<wgt id='6031'>0.22558E+02</wgt>
<wgt id='6032'>0.22353E+02</wgt>
<wgt id='6033'>0.22506E+02</wgt>
<wgt id='6034'>0.22422E+02</wgt>
<wgt id='6035'>0.22432E+02</wgt>
<wgt id='6036'>0.22610E+02</wgt>
<wgt id='6037'>0.22523E+02</wgt>
<wgt id='6038'>0.22458E+02</wgt>
<wgt id='6039'>0.22449E+02</wgt>
<wgt id='6040'>0.22485E+02</wgt>
<wgt id='6041'>0.22441E+02</wgt>
<wgt id='6042'>0.22501E+02</wgt>
<wgt id='6043'>0.22824E+02</wgt>
<wgt id='6044'>0.22292E+02</wgt>
<wgt id='6045'>0.22447E+02</wgt>
<wgt id='6046'>0.22518E+02</wgt>
<wgt id='6047'>0.22361E+02</wgt>
<wgt id='6048'>0.22282E+02</wgt>
<wgt id='6049'>0.22427E+02</wgt>
<wgt id='6050'>0.22464E+02</wgt>
<wgt id='7000'>0.21033E+02</wgt>
<wgt id='7001'>0.21020E+02</wgt>
<wgt id='7002'>0.21051E+02</wgt>
<wgt id='7003'>0.21109E+02</wgt>
<wgt id='7004'>0.20959E+02</wgt>
<wgt id='7005'>0.21066E+02</wgt>
<wgt id='7006'>0.21020E+02</wgt>
<wgt id='7007'>0.20926E+02</wgt>
<wgt id='7008'>0.21141E+02</wgt>
<wgt id='7009'>0.21078E+02</wgt>
<wgt id='7010'>0.20991E+02</wgt>
<wgt id='7011'>0.20781E+02</wgt>
<wgt id='7012'>0.21143E+02</wgt>
<wgt id='7013'>0.21035E+02</wgt>
<wgt id='7014'>0.21032E+02</wgt>
<wgt id='7015'>0.20957E+02</wgt>
<wgt id='7016'>0.21116E+02</wgt>
<wgt id='7017'>0.20982E+02</wgt>
<wgt id='7018'>0.21061E+02</wgt>
<wgt id='7019'>0.21000E+02</wgt>
<wgt id='7020'>0.21079E+02</wgt>
<wgt id='7021'>0.21019E+02</wgt>
<wgt id='7022'>0.21043E+02</wgt>
<wgt id='7023'>0.21376E+02</wgt>
<wgt id='7024'>0.20706E+02</wgt>
<wgt id='7025'>0.21165E+02</wgt>
<wgt id='7026'>0.20714E+02</wgt>
<wgt id='7027'>0.21160E+02</wgt>
<wgt id='7028'>0.20978E+02</wgt>
<wgt id='7029'>0.20873E+02</wgt>
<wgt id='7030'>0.21459E+02</wgt>
<wgt id='7031'>0.21051E+02</wgt>
<wgt id='7032'>0.21006E+02</wgt>
<wgt id='7033'>0.20981E+02</wgt>
<wgt id='7034'>0.21151E+02</wgt>
<wgt id='7035'>0.21150E+02</wgt>
<wgt id='7036'>0.20997E+02</wgt>
<wgt id='7037'>0.21051E+02</wgt>
<wgt id='7038'>0.21036E+02</wgt>
<wgt id='7039'>0.21018E+02</wgt>
<wgt id='7040'>0.21044E+02</wgt>
<wgt id='7041'>0.20958E+02</wgt>
<wgt id='7042'>0.21095E+02</wgt>
<wgt id='7043'>0.21056E+02</wgt>
<wgt id='7044'>0.20907E+02</wgt>
<wgt id='7045'>0.20829E+02</wgt>
<wgt id='7046'>0.21053E+02</wgt>
<wgt id='7047'>0.21025E+02</wgt>
<wgt id='7048'>0.21024E+02</wgt>
<wgt id='7049'>0.21020E+02</wgt>
<wgt id='7050'>0.20943E+02</wgt>
<wgt id='7060'>0.30681E+02</wgt>
<wgt id='8000'>0.21324E+02</wgt>
<wgt id='8001'>0.21319E+02</wgt>
<wgt id='8002'>0.21332E+02</wgt>
<wgt id='8003'>0.21327E+02</wgt>
<wgt id='8004'>0.21324E+02</wgt>
<wgt id='8005'>0.21261E+02</wgt>
<wgt id='8006'>0.21302E+02</wgt>
<wgt id='8007'>0.21276E+02</wgt>
<wgt id='8008'>0.21368E+02</wgt>
<wgt id='8009'>0.21419E+02</wgt>
<wgt id='8010'>0.21328E+02</wgt>
<wgt id='8011'>0.21309E+02</wgt>
<wgt id='8012'>0.21307E+02</wgt>
<wgt id='8013'>0.21332E+02</wgt>
<wgt id='8014'>0.21300E+02</wgt>
<wgt id='8015'>0.21310E+02</wgt>
<wgt id='8016'>0.21326E+02</wgt>
<wgt id='8017'>0.21330E+02</wgt>
<wgt id='8018'>0.21305E+02</wgt>
<wgt id='8019'>0.21387E+02</wgt>
<wgt id='8020'>0.21208E+02</wgt>
<wgt id='8021'>0.21338E+02</wgt>
<wgt id='8022'>0.21113E+02</wgt>
<wgt id='8023'>0.21375E+02</wgt>
<wgt id='8024'>0.21423E+02</wgt>
<wgt id='8025'>0.21456E+02</wgt>
<wgt id='8026'>0.21385E+02</wgt>
<wgt id='8027'>0.21262E+02</wgt>
<wgt id='8028'>0.21351E+02</wgt>
<wgt id='8029'>0.21064E+02</wgt>
<wgt id='8500'>0.22027E+02</wgt>
<wgt id='8501'>0.22032E+02</wgt>
<wgt id='8502'>0.22341E+02</wgt>
<wgt id='8503'>0.22239E+02</wgt>
<wgt id='8504'>0.21983E+02</wgt>
<wgt id='8505'>0.21861E+02</wgt>
<wgt id='8506'>0.21935E+02</wgt>
<wgt id='8507'>0.22220E+02</wgt>
<wgt id='8508'>0.22537E+02</wgt>
<wgt id='8509'>0.21798E+02</wgt>
<wgt id='8510'>0.22498E+02</wgt>
<wgt id='8511'>0.22059E+02</wgt>
<wgt id='8512'>0.21590E+02</wgt>
<wgt id='8513'>0.22096E+02</wgt>
<wgt id='8514'>0.21893E+02</wgt>
<wgt id='8515'>0.21993E+02</wgt>
<wgt id='8516'>0.22141E+02</wgt>
<wgt id='8517'>0.21964E+02</wgt>
<wgt id='8518'>0.22005E+02</wgt>
<wgt id='8519'>0.22020E+02</wgt>
<wgt id='8520'>0.22057E+02</wgt>
<wgt id='8521'>0.21917E+02</wgt>
<wgt id='8522'>0.22016E+02</wgt>
<wgt id='8523'>0.21993E+02</wgt>
<wgt id='8524'>0.22008E+02</wgt>
<wgt id='8525'>0.21990E+02</wgt>
<wgt id='8526'>0.21987E+02</wgt>
<wgt id='8527'>0.22023E+02</wgt>
<wgt id='8528'>0.21957E+02</wgt>
<wgt id='8529'>0.22006E+02</wgt>
<wgt id='8530'>0.22031E+02</wgt>
<wgt id='8531'>0.22015E+02</wgt>
<wgt id='8532'>0.22033E+02</wgt>
<wgt id='8533'>0.21978E+02</wgt>
<wgt id='8534'>0.22041E+02</wgt>
<wgt id='8535'>0.22078E+02</wgt>
<wgt id='8536'>0.22013E+02</wgt>
<wgt id='8537'>0.22041E+02</wgt>
<wgt id='8538'>0.21993E+02</wgt>
<wgt id='8539'>0.22028E+02</wgt>
<wgt id='8540'>0.22032E+02</wgt>
<wgt id='8541'>0.22033E+02</wgt>
<wgt id='8542'>0.22041E+02</wgt>
<wgt id='8543'>0.22008E+02</wgt>
<wgt id='8544'>0.22052E+02</wgt>
<wgt id='8545'>0.22049E+02</wgt>
<wgt id='8546'>0.22045E+02</wgt>
<wgt id='8547'>0.22010E+02</wgt>
<wgt id='8548'>0.22001E+02</wgt>
<wgt id='8549'>0.22028E+02</wgt>
<wgt id='8550'>0.22043E+02</wgt>
<wgt id='8551'>0.22011E+02</wgt>
<wgt id='8552'>0.22040E+02</wgt>
<wgt id='8553'>0.22029E+02</wgt>
<wgt id='8554'>0.22022E+02</wgt>
<wgt id='8555'>0.22031E+02</wgt>
<wgt id='8556'>0.22028E+02</wgt>
<wgt id='8557'>0.22019E+02</wgt>
<wgt id='8558'>0.22043E+02</wgt>
<wgt id='8559'>0.22016E+02</wgt>
<wgt id='8560'>0.22014E+02</wgt>
<wgt id='8561'>0.22021E+02</wgt>
<wgt id='8562'>0.22015E+02</wgt>
<wgt id='8563'>0.22027E+02</wgt>
<wgt id='8564'>0.22031E+02</wgt>
<wgt id='8565'>0.22024E+02</wgt>
<wgt id='8566'>0.22019E+02</wgt>
<wgt id='8567'>0.22030E+02</wgt>
<wgt id='8568'>0.22031E+02</wgt>
<wgt id='8569'>0.22031E+02</wgt>
<wgt id='8570'>0.22025E+02</wgt>
<wgt id='8571'>0.22023E+02</wgt>
<wgt id='8572'>0.22026E+02</wgt>
<wgt id='8573'>0.22019E+02</wgt>
<wgt id='8574'>0.22040E+02</wgt>
<wgt id='8575'>0.22025E+02</wgt>
<wgt id='8576'>0.22024E+02</wgt>
<wgt id='8577'>0.22028E+02</wgt>
<wgt id='8578'>0.22034E+02</wgt>
<wgt id='8579'>0.22035E+02</wgt>
<wgt id='8580'>0.22024E+02</wgt>
<wgt id='8581'>0.22027E+02</wgt>
<wgt id='8582'>0.22017E+02</wgt>
<wgt id='8583'>0.22036E+02</wgt>
<wgt id='8584'>0.22029E+02</wgt>
<wgt id='8585'>0.22030E+02</wgt>
<wgt id='8586'>0.22030E+02</wgt>
<wgt id='8587'>0.22025E+02</wgt>
<wgt id='8588'>0.22022E+02</wgt>
<wgt id='8589'>0.22027E+02</wgt>
<wgt id='8590'>0.22023E+02</wgt>
<wgt id='8591'>0.22028E+02</wgt>
<wgt id='8592'>0.22027E+02</wgt>
<wgt id='8593'>0.22020E+02</wgt>
<wgt id='8594'>0.22033E+02</wgt>
<wgt id='8595'>0.22031E+02</wgt>
<wgt id='8596'>0.22021E+02</wgt>
<wgt id='8597'>0.22030E+02</wgt>
<wgt id='8598'>0.22033E+02</wgt>
<wgt id='8599'>0.22030E+02</wgt>
<wgt id='8600'>0.22026E+02</wgt>
<wgt id='8601'>0.21786E+02</wgt>
<wgt id='8602'>0.22172E+02</wgt>
<wgt id='9000'>0.20955E+02</wgt>
<wgt id='9001'>0.20983E+02</wgt>
<wgt id='9002'>0.21115E+02</wgt>
<wgt id='9003'>0.20685E+02</wgt>
<wgt id='9004'>0.20870E+02</wgt>
<wgt id='9005'>0.21090E+02</wgt>
<wgt id='9006'>0.20832E+02</wgt>
<wgt id='9007'>0.20936E+02</wgt>
<wgt id='9008'>0.21004E+02</wgt>
<wgt id='9009'>0.20934E+02</wgt>
<wgt id='9010'>0.20899E+02</wgt>
<wgt id='9011'>0.21287E+02</wgt>
<wgt id='9012'>0.20575E+02</wgt>
<wgt id='9013'>0.20487E+02</wgt>
<wgt id='9014'>0.20579E+02</wgt>
<wgt id='9015'>0.20952E+02</wgt>
<wgt id='9016'>0.21100E+02</wgt>
<wgt id='9017'>0.21007E+02</wgt>
<wgt id='9018'>0.20915E+02</wgt>
<wgt id='9019'>0.20897E+02</wgt>
<wgt id='9020'>0.21012E+02</wgt>
<wgt id='9021'>0.20954E+02</wgt>
<wgt id='9022'>0.20986E+02</wgt>
<wgt id='9023'>0.20942E+02</wgt>
<wgt id='9024'>0.20933E+02</wgt>
<wgt id='9025'>0.20953E+02</wgt>
<wgt id='9026'>0.20963E+02</wgt>
<wgt id='9027'>0.20942E+02</wgt>
<wgt id='9028'>0.20971E+02</wgt>
<wgt id='9029'>0.20986E+02</wgt>
<wgt id='9030'>0.20980E+02</wgt>
<wgt id='9031'>0.20951E+02</wgt>
<wgt id='9032'>0.20967E+02</wgt>
<wgt id='9033'>0.20983E+02</wgt>
<wgt id='9034'>0.20938E+02</wgt>
<wgt id='9035'>0.21004E+02</wgt>
<wgt id='9036'>0.20946E+02</wgt>
<wgt id='9037'>0.20978E+02</wgt>
<wgt id='9038'>0.20946E+02</wgt>
<wgt id='9039'>0.20950E+02</wgt>
<wgt id='9040'>0.20922E+02</wgt>
<wgt id='9041'>0.20937E+02</wgt>
<wgt id='9042'>0.20941E+02</wgt>
<wgt id='9043'>0.20939E+02</wgt>
<wgt id='9044'>0.20961E+02</wgt>
<wgt id='9045'>0.20939E+02</wgt>
<wgt id='9046'>0.20923E+02</wgt>
<wgt id='9047'>0.20934E+02</wgt>
<wgt id='9048'>0.20962E+02</wgt>
<wgt id='9049'>0.20948E+02</wgt>
<wgt id='9050'>0.20961E+02</wgt>
<wgt id='9051'>0.20958E+02</wgt>
<wgt id='9052'>0.20955E+02</wgt>
<wgt id='9053'>0.20965E+02</wgt>
<wgt id='9054'>0.20943E+02</wgt>
<wgt id='9055'>0.20958E+02</wgt>
<wgt id='9056'>0.20977E+02</wgt>
<wgt id='9057'>0.20948E+02</wgt>
<wgt id='9058'>0.20947E+02</wgt>
<wgt id='9059'>0.20950E+02</wgt>
<wgt id='9060'>0.20955E+02</wgt>
<wgt id='9061'>0.20957E+02</wgt>
<wgt id='9062'>0.20960E+02</wgt>
<wgt id='9063'>0.20963E+02</wgt>
<wgt id='9064'>0.20953E+02</wgt>
<wgt id='9065'>0.20954E+02</wgt>
<wgt id='9066'>0.20953E+02</wgt>
<wgt id='9067'>0.20960E+02</wgt>
<wgt id='9068'>0.20961E+02</wgt>
<wgt id='9069'>0.20965E+02</wgt>
<wgt id='9070'>0.20956E+02</wgt>
<wgt id='9071'>0.20962E+02</wgt>
<wgt id='9072'>0.20963E+02</wgt>
<wgt id='9073'>0.20951E+02</wgt>
<wgt id='9074'>0.20960E+02</wgt>
<wgt id='9075'>0.20955E+02</wgt>
<wgt id='9076'>0.20955E+02</wgt>
<wgt id='9077'>0.20956E+02</wgt>
<wgt id='9078'>0.20960E+02</wgt>
<wgt id='9079'>0.20951E+02</wgt>
<wgt id='9080'>0.20961E+02</wgt>
<wgt id='9081'>0.20956E+02</wgt>
<wgt id='9082'>0.20958E+02</wgt>
<wgt id='9083'>0.20952E+02</wgt>
<wgt id='9084'>0.20952E+02</wgt>
<wgt id='9085'>0.20951E+02</wgt>
<wgt id='9086'>0.20955E+02</wgt>
<wgt id='9087'>0.20948E+02</wgt>
<wgt id='9088'>0.20951E+02</wgt>
<wgt id='9089'>0.20952E+02</wgt>
<wgt id='9090'>0.20957E+02</wgt>
<wgt id='9091'>0.20957E+02</wgt>
<wgt id='9092'>0.20955E+02</wgt>
<wgt id='9093'>0.20953E+02</wgt>
<wgt id='9094'>0.20956E+02</wgt>
<wgt id='9095'>0.20958E+02</wgt>
<wgt id='9096'>0.20951E+02</wgt>
<wgt id='9097'>0.20956E+02</wgt>
<wgt id='9098'>0.20956E+02</wgt>
<wgt id='9099'>0.20952E+02</wgt>
<wgt id='9100'>0.20955E+02</wgt>
<wgt id='9101'>0.20842E+02</wgt>
<wgt id='9102'>0.20970E+02</wgt>
<wgt id='10000'>0.22026E+02</wgt>
<wgt id='10001'>0.22158E+02</wgt>
<wgt id='10002'>0.22064E+02</wgt>
<wgt id='10003'>0.22036E+02</wgt>
<wgt id='10004'>0.22160E+02</wgt>
<wgt id='10005'>0.22986E+02</wgt>
<wgt id='10006'>0.22051E+02</wgt>
<wgt id='10007'>0.22021E+02</wgt>
<wgt id='10008'>0.22068E+02</wgt>
<wgt id='10009'>0.22018E+02</wgt>
<wgt id='10010'>0.22026E+02</wgt>
<wgt id='10011'>0.22042E+02</wgt>
<wgt id='10012'>0.22007E+02</wgt>
<wgt id='10013'>0.22013E+02</wgt>
<wgt id='10014'>0.22039E+02</wgt>
<wgt id='10015'>0.22054E+02</wgt>
<wgt id='10016'>0.22049E+02</wgt>
<wgt id='10017'>0.21847E+02</wgt>
<wgt id='10018'>0.22033E+02</wgt>
<wgt id='10019'>0.22046E+02</wgt>
<wgt id='10020'>0.22063E+02</wgt>
<wgt id='10021'>0.22033E+02</wgt>
<wgt id='10022'>0.22031E+02</wgt>
<wgt id='10023'>0.22033E+02</wgt>
<wgt id='10024'>0.22032E+02</wgt>
<wgt id='10025'>0.22011E+02</wgt>
<wgt id='10026'>0.22007E+02</wgt>
<wgt id='10027'>0.22016E+02</wgt>
<wgt id='10028'>0.21983E+02</wgt>
<wgt id='10029'>0.22048E+02</wgt>
<wgt id='10030'>0.22024E+02</wgt>
<wgt id='10031'>0.21786E+02</wgt>
<wgt id='10032'>0.22172E+02</wgt>
<wgt id='11000'>0.20954E+02</wgt>
<wgt id='11001'>0.21070E+02</wgt>
<wgt id='11002'>0.21074E+02</wgt>
<wgt id='11003'>0.20923E+02</wgt>
<wgt id='11004'>0.21101E+02</wgt>
<wgt id='11005'>0.20525E+02</wgt>
<wgt id='11006'>0.20945E+02</wgt>
<wgt id='11007'>0.20883E+02</wgt>
<wgt id='11008'>0.20886E+02</wgt>
<wgt id='11009'>0.20805E+02</wgt>
<wgt id='11010'>0.20988E+02</wgt>
<wgt id='11011'>0.20789E+02</wgt>
<wgt id='11012'>0.20986E+02</wgt>
<wgt id='11013'>0.21060E+02</wgt>
<wgt id='11014'>0.20855E+02</wgt>
<wgt id='11015'>0.20921E+02</wgt>
<wgt id='11016'>0.20914E+02</wgt>
<wgt id='11017'>0.21218E+02</wgt>
<wgt id='11018'>0.20949E+02</wgt>
<wgt id='11019'>0.20943E+02</wgt>
<wgt id='11020'>0.21000E+02</wgt>
<wgt id='11021'>0.21057E+02</wgt>
<wgt id='11022'>0.21578E+02</wgt>
<wgt id='11023'>0.20943E+02</wgt>
<wgt id='11024'>0.20946E+02</wgt>
<wgt id='11025'>0.20902E+02</wgt>
<wgt id='11026'>0.20952E+02</wgt>
<wgt id='11027'>0.20946E+02</wgt>
<wgt id='11028'>0.20949E+02</wgt>
<wgt id='11029'>0.20994E+02</wgt>
<wgt id='11030'>0.20951E+02</wgt>
<wgt id='11031'>0.20842E+02</wgt>
<wgt id='11032'>0.20970E+02</wgt>
<wgt id='12000'>0.24644E+02</wgt>
<wgt id='12001'>0.24603E+02</wgt>
<wgt id='12002'>0.24685E+02</wgt>
<wgt id='12003'>0.24724E+02</wgt>
<wgt id='12004'>0.24564E+02</wgt>
<wgt id='12005'>0.24697E+02</wgt>
<wgt id='12006'>0.24590E+02</wgt>
<wgt id='12007'>0.24729E+02</wgt>
<wgt id='12008'>0.24562E+02</wgt>
<wgt id='12009'>0.24706E+02</wgt>
<wgt id='12010'>0.24583E+02</wgt>
<wgt id='12011'>0.24617E+02</wgt>
<wgt id='12012'>0.24674E+02</wgt>
<wgt id='12013'>0.24522E+02</wgt>
<wgt id='12014'>0.24767E+02</wgt>
<wgt id='12015'>0.24603E+02</wgt>
<wgt id='12016'>0.24640E+02</wgt>
<wgt id='12017'>0.24718E+02</wgt>
<wgt id='12018'>0.24556E+02</wgt>
<wgt id='12019'>0.24503E+02</wgt>
<wgt id='12020'>0.24781E+02</wgt>
<wgt id='12021'>0.24797E+02</wgt>
<wgt id='12022'>0.24453E+02</wgt>
<wgt id='12023'>0.24570E+02</wgt>
<wgt id='12024'>0.24554E+02</wgt>
<wgt id='12025'>0.24784E+02</wgt>
<wgt id='12026'>0.24547E+02</wgt>
<wgt id='12027'>0.24517E+02</wgt>
<wgt id='12028'>0.24799E+02</wgt>
<wgt id='12050'>0.24644E+02</wgt>
<wgt id='12051'>0.24569E+02</wgt>
<wgt id='12052'>0.24730E+02</wgt>
<wgt id='12053'>0.24557E+02</wgt>
<wgt id='12054'>0.24703E+02</wgt>
<wgt id='12055'>0.24787E+02</wgt>
<wgt id='12056'>0.24268E+02</wgt>
<wgt id='12057'>0.24505E+02</wgt>
<wgt id='12058'>0.24769E+02</wgt>
<wgt id='12059'>0.24522E+02</wgt>
<wgt id='12060'>0.24772E+02</wgt>
<wgt id='12061'>0.24692E+02</wgt>
<wgt id='12062'>0.24702E+02</wgt>
<wgt id='12063'>0.24223E+02</wgt>
<wgt id='13000'>0.21219E+02</wgt>
<wgt id='13001'>0.21202E+02</wgt>
<wgt id='13002'>0.21234E+02</wgt>
<wgt id='13003'>0.21257E+02</wgt>
<wgt id='13004'>0.21180E+02</wgt>
<wgt id='13005'>0.21286E+02</wgt>
<wgt id='13006'>0.21151E+02</wgt>
<wgt id='13007'>0.21327E+02</wgt>
<wgt id='13008'>0.21112E+02</wgt>
<wgt id='13009'>0.21246E+02</wgt>
<wgt id='13010'>0.21192E+02</wgt>
<wgt id='13011'>0.21282E+02</wgt>
<wgt id='13012'>0.21155E+02</wgt>
<wgt id='13013'>0.21141E+02</wgt>
<wgt id='13014'>0.21295E+02</wgt>
<wgt id='13015'>0.21159E+02</wgt>
<wgt id='13016'>0.21258E+02</wgt>
<wgt id='13017'>0.21220E+02</wgt>
<wgt id='13018'>0.21210E+02</wgt>
<wgt id='13019'>0.21172E+02</wgt>
<wgt id='13020'>0.21262E+02</wgt>
<wgt id='13021'>0.20911E+02</wgt>
<wgt id='13022'>0.21484E+02</wgt>
<wgt id='13023'>0.21275E+02</wgt>
<wgt id='13024'>0.21153E+02</wgt>
<wgt id='13025'>0.21214E+02</wgt>
<wgt id='13026'>0.21144E+02</wgt>
<wgt id='13027'>0.21262E+02</wgt>
<wgt id='13028'>0.21207E+02</wgt>
<wgt id='13050'>0.21219E+02</wgt>
<wgt id='13051'>0.21179E+02</wgt>
<wgt id='13052'>0.21257E+02</wgt>
<wgt id='13053'>0.21165E+02</wgt>
<wgt id='13054'>0.21243E+02</wgt>
<wgt id='13055'>0.21296E+02</wgt>
<wgt id='13056'>0.21172E+02</wgt>
<wgt id='13057'>0.21114E+02</wgt>
<wgt id='13058'>0.21369E+02</wgt>
<wgt id='13059'>0.21093E+02</wgt>
<wgt id='13060'>0.21466E+02</wgt>
<wgt id='13061'>0.21122E+02</wgt>
<wgt id='13062'>0.21467E+02</wgt>
<wgt id='13063'>0.20963E+02</wgt>
<wgt id='14000'>0.21835E+02</wgt>
<wgt id='14001'>0.21831E+02</wgt>
<wgt id='14002'>0.21828E+02</wgt>
<wgt id='14003'>0.21824E+02</wgt>
<wgt id='14004'>0.21821E+02</wgt>
<wgt id='14005'>0.21817E+02</wgt>
<wgt id='14006'>0.21814E+02</wgt>
<wgt id='14007'>0.21810E+02</wgt>
<wgt id='14008'>0.21806E+02</wgt>
<wgt id='14009'>0.21803E+02</wgt>
<wgt id='14010'>0.21800E+02</wgt>
<wgt id='14011'>0.21796E+02</wgt>
<wgt id='14012'>0.21792E+02</wgt>
<wgt id='14013'>0.21789E+02</wgt>
<wgt id='14014'>0.21785E+02</wgt>
<wgt id='14015'>0.21782E+02</wgt>
<wgt id='14016'>0.21778E+02</wgt>
<wgt id='14017'>0.21775E+02</wgt>
<wgt id='14018'>0.21771E+02</wgt>
<wgt id='14019'>0.21768E+02</wgt>
<wgt id='14020'>0.21764E+02</wgt>
<wgt id='14021'>0.21761E+02</wgt>
<wgt id='14022'>0.21757E+02</wgt>
<wgt id='14023'>0.21754E+02</wgt>
<wgt id='14024'>0.21750E+02</wgt>
<wgt id='14025'>0.21747E+02</wgt>
<wgt id='14026'>0.21743E+02</wgt>
<wgt id='14027'>0.21739E+02</wgt>
<wgt id='14028'>0.21736E+02</wgt>
<wgt id='14029'>0.21733E+02</wgt>
<wgt id='14030'>0.21729E+02</wgt>
<wgt id='15000'>0.20691E+02</wgt>
<wgt id='15001'>0.20718E+02</wgt>
<wgt id='15002'>0.20850E+02</wgt>
<wgt id='15003'>0.20422E+02</wgt>
<wgt id='15004'>0.20607E+02</wgt>
<wgt id='15005'>0.20824E+02</wgt>
<wgt id='15006'>0.20568E+02</wgt>
<wgt id='15007'>0.20672E+02</wgt>
<wgt id='15008'>0.20739E+02</wgt>
<wgt id='15009'>0.20669E+02</wgt>
<wgt id='15010'>0.20633E+02</wgt>
<wgt id='15011'>0.21019E+02</wgt>
<wgt id='15012'>0.20315E+02</wgt>
<wgt id='15013'>0.20226E+02</wgt>
<wgt id='15014'>0.20320E+02</wgt>
<wgt id='15015'>0.20689E+02</wgt>
<wgt id='15016'>0.20833E+02</wgt>
<wgt id='15017'>0.20742E+02</wgt>
<wgt id='15018'>0.20652E+02</wgt>
<wgt id='15019'>0.20634E+02</wgt>
<wgt id='15020'>0.20746E+02</wgt>
<wgt id='15021'>0.20689E+02</wgt>
<wgt id='15022'>0.20722E+02</wgt>
<wgt id='15023'>0.20675E+02</wgt>
<wgt id='15024'>0.20668E+02</wgt>
<wgt id='15025'>0.20690E+02</wgt>
<wgt id='15026'>0.20699E+02</wgt>
<wgt id='15027'>0.20676E+02</wgt>
<wgt id='15028'>0.20706E+02</wgt>
<wgt id='15029'>0.20722E+02</wgt>
<wgt id='15030'>0.20714E+02</wgt>
<wgt id='15031'>0.20685E+02</wgt>
<wgt id='15032'>0.20703E+02</wgt>
<wgt id='15033'>0.20718E+02</wgt>
<wgt id='15034'>0.20674E+02</wgt>
<wgt id='15035'>0.20739E+02</wgt>
<wgt id='15036'>0.20681E+02</wgt>
<wgt id='15037'>0.20713E+02</wgt>
<wgt id='15038'>0.20682E+02</wgt>
<wgt id='15039'>0.20686E+02</wgt>
<wgt id='15040'>0.20658E+02</wgt>
<wgt id='15041'>0.20673E+02</wgt>
<wgt id='15042'>0.20677E+02</wgt>
<wgt id='15043'>0.20673E+02</wgt>
<wgt id='15044'>0.20697E+02</wgt>
<wgt id='15045'>0.20675E+02</wgt>
<wgt id='15046'>0.20659E+02</wgt>
<wgt id='15047'>0.20671E+02</wgt>
<wgt id='15048'>0.20697E+02</wgt>
<wgt id='15049'>0.20683E+02</wgt>
<wgt id='15050'>0.20696E+02</wgt>
<wgt id='15051'>0.20693E+02</wgt>
<wgt id='15052'>0.20690E+02</wgt>
<wgt id='15053'>0.20700E+02</wgt>
<wgt id='15054'>0.20678E+02</wgt>
<wgt id='15055'>0.20693E+02</wgt>
<wgt id='15056'>0.20712E+02</wgt>
<wgt id='15057'>0.20684E+02</wgt>
<wgt id='15058'>0.20682E+02</wgt>
<wgt id='15059'>0.20685E+02</wgt>
<wgt id='15060'>0.20690E+02</wgt>
<wgt id='15061'>0.20693E+02</wgt>
<wgt id='15062'>0.20696E+02</wgt>
<wgt id='15063'>0.20699E+02</wgt>
<wgt id='15064'>0.20688E+02</wgt>
<wgt id='15065'>0.20689E+02</wgt>
<wgt id='15066'>0.20689E+02</wgt>
<wgt id='15067'>0.20695E+02</wgt>
<wgt id='15068'>0.20696E+02</wgt>
<wgt id='15069'>0.20701E+02</wgt>
<wgt id='15070'>0.20691E+02</wgt>
<wgt id='15071'>0.20697E+02</wgt>
<wgt id='15072'>0.20699E+02</wgt>
<wgt id='15073'>0.20686E+02</wgt>
<wgt id='15074'>0.20695E+02</wgt>
<wgt id='15075'>0.20690E+02</wgt>
<wgt id='15076'>0.20690E+02</wgt>
<wgt id='15077'>0.20691E+02</wgt>
<wgt id='15078'>0.20695E+02</wgt>
<wgt id='15079'>0.20686E+02</wgt>
<wgt id='15080'>0.20697E+02</wgt>
<wgt id='15081'>0.20691E+02</wgt>
<wgt id='15082'>0.20694E+02</wgt>
<wgt id='15083'>0.20688E+02</wgt>
<wgt id='15084'>0.20687E+02</wgt>
<wgt id='15085'>0.20686E+02</wgt>
<wgt id='15086'>0.20690E+02</wgt>
<wgt id='15087'>0.20683E+02</wgt>
<wgt id='15088'>0.20687E+02</wgt>
<wgt id='15089'>0.20687E+02</wgt>
<wgt id='15090'>0.20692E+02</wgt>
<wgt id='15091'>0.20692E+02</wgt>
<wgt id='15092'>0.20691E+02</wgt>
<wgt id='15093'>0.20689E+02</wgt>
<wgt id='15094'>0.20692E+02</wgt>
<wgt id='15095'>0.20693E+02</wgt>
<wgt id='15096'>0.20687E+02</wgt>
<wgt id='15097'>0.20691E+02</wgt>
<wgt id='15098'>0.20691E+02</wgt>
<wgt id='15099'>0.20687E+02</wgt>
<wgt id='15100'>0.20690E+02</wgt>
<wgt id='15101'>0.20690E+02</wgt>
<wgt id='15102'>0.20689E+02</wgt>
<wgt id='15103'>0.20691E+02</wgt>
<wgt id='15104'>0.20691E+02</wgt>
<wgt id='15105'>0.20691E+02</wgt>
<wgt id='15106'>0.20691E+02</wgt>
<wgt id='15107'>0.20689E+02</wgt>
<wgt id='1500'>0.21695E+02</wgt>
<wgt id='1501'>0.19107E+02</wgt>
<wgt id='1502'>0.21737E+02</wgt>
<wgt id='1503'>0.21209E+02</wgt>
<wgt id='1504'>0.21617E+02</wgt>
<wgt id='1505'>0.17895E+02</wgt>
<wgt id='1506'>0.21942E+02</wgt>
<wgt id='1507'>0.22113E+02</wgt>
<wgt id='1508'>0.21554E+02</wgt>
<wgt id='1509'>0.21628E+02</wgt>
<wgt id='1510'>0.20522E+02</wgt>
<wgt id='1511'>0.21139E+02</wgt>
<wgt id='1512'>0.22325E+02</wgt>
<wgt id='1513'>0.22501E+02</wgt>
<wgt id='1514'>0.20552E+02</wgt>
<wgt id='1515'>0.21659E+02</wgt>
<wgt id='1516'>0.22163E+02</wgt>
<wgt id='1517'>0.21015E+02</wgt>
<wgt id='1518'>0.21370E+02</wgt>
<wgt id='1519'>0.22207E+02</wgt>
<wgt id='1520'>0.21921E+02</wgt>
<wgt id='1521'>0.21922E+02</wgt>
<wgt id='1522'>0.21454E+02</wgt>
<wgt id='1523'>0.24050E+02</wgt>
<wgt id='1524'>0.21421E+02</wgt>
<wgt id='1525'>0.22251E+02</wgt>
<wgt id='1526'>0.21263E+02</wgt>
<wgt id='1527'>0.21281E+02</wgt>
<wgt id='1528'>0.21482E+02</wgt>
<wgt id='1529'>0.21143E+02</wgt>
<wgt id='1530'>0.22234E+02</wgt>
<wgt id='1531'>0.21682E+02</wgt>
<wgt id='1532'>0.20847E+02</wgt>
<wgt id='1533'>0.22467E+02</wgt>
<wgt id='1534'>0.22042E+02</wgt>
<wgt id='1535'>0.22263E+02</wgt>
<wgt id='1536'>0.22832E+02</wgt>
<wgt id='1537'>0.22013E+02</wgt>
<wgt id='1538'>0.21477E+02</wgt>
<wgt id='1539'>0.20659E+02</wgt>
<wgt id='1540'>0.22264E+02</wgt>
<wgt id='1541'>0.21720E+02</wgt>
<wgt id='1542'>0.22291E+02</wgt>
<wgt id='1543'>0.22173E+02</wgt>
<wgt id='1544'>0.21384E+02</wgt>
<wgt id='1545'>0.22042E+02</wgt>
<wgt id='1546'>0.21973E+02</wgt>
<wgt id='1547'>0.21247E+02</wgt>
<wgt id='1548'>0.21210E+02</wgt>
<wgt id='1549'>0.21882E+02</wgt>
<wgt id='1550'>0.21883E+02</wgt>
<wgt id='1551'>0.21769E+02</wgt>
<wgt id='1552'>0.21530E+02</wgt>
<wgt id='1553'>0.22167E+02</wgt>
<wgt id='1554'>0.22003E+02</wgt>
<wgt id='1555'>0.21872E+02</wgt>
<wgt id='1556'>0.20781E+02</wgt>
<wgt id='1557'>0.23199E+02</wgt>
<wgt id='1558'>0.21467E+02</wgt>
<wgt id='1559'>0.21881E+02</wgt>
<wgt id='1560'>0.21687E+02</wgt>
<wgt id='1561'>0.22140E+02</wgt>
<wgt id='1562'>0.21588E+02</wgt>
<wgt id='1563'>0.22488E+02</wgt>
<wgt id='1564'>0.21120E+02</wgt>
<wgt id='1565'>0.22267E+02</wgt>
<wgt id='1566'>0.21791E+02</wgt>
<wgt id='1567'>0.22852E+02</wgt>
<wgt id='1568'>0.21309E+02</wgt>
<wgt id='1569'>0.21049E+02</wgt>
<wgt id='1570'>0.21950E+02</wgt>
<wgt id='1571'>0.22595E+02</wgt>
<wgt id='1572'>0.21542E+02</wgt>
<wgt id='1573'>0.19202E+02</wgt>
<wgt id='1574'>0.21835E+02</wgt>
<wgt id='1575'>0.21435E+02</wgt>
<wgt id='1576'>0.20910E+02</wgt>
<wgt id='1577'>0.22068E+02</wgt>
<wgt id='1578'>0.22979E+02</wgt>
<wgt id='1579'>0.21595E+02</wgt>
<wgt id='1580'>0.22042E+02</wgt>
<wgt id='1581'>0.21854E+02</wgt>
<wgt id='1582'>0.21415E+02</wgt>
<wgt id='1583'>0.21787E+02</wgt>
<wgt id='1584'>0.21814E+02</wgt>
<wgt id='1585'>0.20697E+02</wgt>
<wgt id='1586'>0.21570E+02</wgt>
<wgt id='1587'>0.21369E+02</wgt>
<wgt id='1588'>0.21720E+02</wgt>
<wgt id='1589'>0.22415E+02</wgt>
<wgt id='1590'>0.21588E+02</wgt>
<wgt id='1591'>0.20972E+02</wgt>
<wgt id='1592'>0.22682E+02</wgt>
<wgt id='1593'>0.21456E+02</wgt>
<wgt id='1594'>0.22193E+02</wgt>
<wgt id='1595'>0.20995E+02</wgt>
<wgt id='1596'>0.22266E+02</wgt>
<wgt id='1597'>0.21849E+02</wgt>
<wgt id='1598'>0.23127E+02</wgt>
<wgt id='1599'>0.22680E+02</wgt>
<wgt id='1600'>0.21539E+02</wgt>
<wgt id='1601'>0.21456E+02</wgt>
<wgt id='1602'>0.21744E+02</wgt>
<wgt id='1700'>0.21113E+02</wgt>
<wgt id='1800'>0.26308E+02</wgt>
<wgt id='1850'>0.30119E+02</wgt>
<wgt id='1900'>0.25343E+02</wgt>
<wgt id='1950'>0.28941E+02</wgt>
</rwgt>
</event>
<event>
      4   9999  2.16956E+01  1.58851E+01 -1.00000E+00  1.71856E-01
      21    -1     0     0   502   501  0.000000000E+00  0.000000000E+00  5.372777191E+02  5.372777191E+02  0.000000000E+00  0.00000E+00  9.000E+00
       2    -1     0     0   501     0  0.000000000E+00  0.000000000E+00 -6.471090227E+01  6.471090227E+01  0.000000000E+00  0.00000E+00  9.000E+00
      25     1     1     2     0     0 -1.667326841E+00 -1.579730629E+01  5.287741528E+02  5.435797224E+02  1.249979002E+02  0.00000E+00  9.000E+00
       2     1     1     2   502     0  1.667326841E+00  1.579730629E+01 -5.620733596E+01  5.840889898E+01  1.651812370E-06  0.00000E+00  9.000E+00
#rwgt            1           1   16.489906224358887                1        7497           0
<rwgt>
<wgt id='1001'>0.21696E+02</wgt>
<wgt id='1002'>0.22393E+02</wgt>
<wgt id='1003'>0.20788E+02</wgt>
<wgt id='1004'>0.19410E+02</wgt>
<wgt id='1005'>0.20021E+02</wgt>
<wgt id='1006'>0.18590E+02</wgt>
<wgt id='1007'>0.24142E+02</wgt>
<wgt id='1008'>0.24943E+02</wgt>
<wgt id='1009'>0.23148E+02</wgt>
<wgt id='2000'>0.21696E+02</wgt>
<wgt id='2001'>0.21682E+02</wgt>
<wgt id='2002'>0.21695E+02</wgt>
<wgt id='2003'>0.21650E+02</wgt>
<wgt id='2004'>0.21721E+02</wgt>
<wgt id='2005'>0.21744E+02</wgt>
<wgt id='2006'>0.21708E+02</wgt>
<wgt id='2007'>0.21804E+02</wgt>
<wgt id='2008'>0.21793E+02</wgt>
<wgt id='2009'>0.21656E+02</wgt>
<wgt id='2010'>0.21648E+02</wgt>
<wgt id='2011'>0.21678E+02</wgt>
<wgt id='2012'>0.21675E+02</wgt>
<wgt id='2013'>0.21607E+02</wgt>
<wgt id='2014'>0.21633E+02</wgt>
<wgt id='2015'>0.21673E+02</wgt>
<wgt id='2016'>0.21719E+02</wgt>
<wgt id='2017'>0.21675E+02</wgt>
<wgt id='2018'>0.21634E+02</wgt>
<wgt id='2019'>0.21704E+02</wgt>
<wgt id='2020'>0.21628E+02</wgt>
<wgt id='2021'>0.21732E+02</wgt>
<wgt id='2022'>0.21617E+02</wgt>
<wgt id='2023'>0.21700E+02</wgt>
<wgt id='2024'>0.21644E+02</wgt>
<wgt id='2025'>0.21629E+02</wgt>
<wgt id='2026'>0.21706E+02</wgt>
<wgt id='2027'>0.21662E+02</wgt>
<wgt id='2028'>0.21672E+02</wgt>
<wgt id='2029'>0.21849E+02</wgt>
<wgt id='2030'>0.21698E+02</wgt>
<wgt id='2031'>0.21708E+02</wgt>
<wgt id='2032'>0.21701E+02</wgt>
<wgt id='2033'>0.21709E+02</wgt>
<wgt id='2034'>0.21761E+02</wgt>
<wgt id='2035'>0.21673E+02</wgt>
<wgt id='2036'>0.21673E+02</wgt>
<wgt id='2037'>0.21759E+02</wgt>
<wgt id='2038'>0.21678E+02</wgt>
<wgt id='2039'>0.21637E+02</wgt>
<wgt id='2040'>0.21651E+02</wgt>
<wgt id='2041'>0.21651E+02</wgt>
<wgt id='2042'>0.21678E+02</wgt>
<wgt id='2043'>0.21702E+02</wgt>
<wgt id='2044'>0.21734E+02</wgt>
<wgt id='2045'>0.21678E+02</wgt>
<wgt id='2046'>0.21749E+02</wgt>
<wgt id='2047'>0.21730E+02</wgt>
<wgt id='2048'>0.21684E+02</wgt>
<wgt id='2049'>0.21692E+02</wgt>
<wgt id='2050'>0.21729E+02</wgt>
<wgt id='2051'>0.21713E+02</wgt>
<wgt id='2052'>0.21675E+02</wgt>
<wgt id='2053'>0.21694E+02</wgt>
<wgt id='2054'>0.21710E+02</wgt>
<wgt id='2055'>0.21706E+02</wgt>
<wgt id='2056'>0.21697E+02</wgt>
<wgt id='2057'>0.21687E+02</wgt>
<wgt id='2058'>0.21700E+02</wgt>
<wgt id='2059'>0.21691E+02</wgt>
<wgt id='2060'>0.21701E+02</wgt>
<wgt id='2061'>0.21700E+02</wgt>
<wgt id='2062'>0.21708E+02</wgt>
<wgt id='2063'>0.21682E+02</wgt>
<wgt id='2064'>0.21690E+02</wgt>
<wgt id='2065'>0.21696E+02</wgt>
<wgt id='2066'>0.21687E+02</wgt>
<wgt id='2067'>0.21701E+02</wgt>
<wgt id='2068'>0.21704E+02</wgt>
<wgt id='2069'>0.21696E+02</wgt>
<wgt id='2070'>0.21694E+02</wgt>
<wgt id='2071'>0.21677E+02</wgt>
<wgt id='2072'>0.21697E+02</wgt>
<wgt id='2073'>0.21697E+02</wgt>
<wgt id='2074'>0.21681E+02</wgt>
<wgt id='2075'>0.21696E+02</wgt>
<wgt id='2076'>0.21694E+02</wgt>
<wgt id='2077'>0.21689E+02</wgt>
<wgt id='2078'>0.21700E+02</wgt>
<wgt id='2079'>0.21702E+02</wgt>
<wgt id='2080'>0.21691E+02</wgt>
<wgt id='2081'>0.21698E+02</wgt>
<wgt id='2082'>0.21699E+02</wgt>
<wgt id='2083'>0.21692E+02</wgt>
<wgt id='2084'>0.21694E+02</wgt>
<wgt id='2085'>0.21688E+02</wgt>
<wgt id='2086'>0.21698E+02</wgt>
<wgt id='2087'>0.21696E+02</wgt>
<wgt id='2088'>0.21697E+02</wgt>
<wgt id='2089'>0.21705E+02</wgt>
<wgt id='2090'>0.21698E+02</wgt>
<wgt id='2091'>0.21689E+02</wgt>
<wgt id='2092'>0.21693E+02</wgt>
<wgt id='2093'>0.21696E+02</wgt>
<wgt id='2094'>0.21692E+02</wgt>
<wgt id='2095'>0.21693E+02</wgt>
<wgt id='2096'>0.21694E+02</wgt>
<wgt id='2097'>0.21701E+02</wgt>
<wgt id='2098'>0.21691E+02</wgt>
<wgt id='2099'>0.21701E+02</wgt>
<wgt id='2100'>0.21693E+02</wgt>
<wgt id='2101'>0.21154E+02</wgt>
<wgt id='2102'>0.22314E+02</wgt>
<wgt id='2104'>0.18869E+02</wgt>
<wgt id='2105'>0.19473E+02</wgt>
<wgt id='2106'>0.19896E+02</wgt>
<wgt id='2107'>0.20391E+02</wgt>
<wgt id='2108'>0.21388E+02</wgt>
<wgt id='2109'>0.21985E+02</wgt>
<wgt id='2110'>0.22910E+02</wgt>
<wgt id='2111'>0.23471E+02</wgt>
<wgt id='3000'>0.22814E+02</wgt>
<wgt id='3001'>0.22827E+02</wgt>
<wgt id='3002'>0.22792E+02</wgt>
<wgt id='3003'>0.22749E+02</wgt>
<wgt id='3004'>0.22845E+02</wgt>
<wgt id='3005'>0.22715E+02</wgt>
<wgt id='3006'>0.22776E+02</wgt>
<wgt id='3007'>0.22705E+02</wgt>
<wgt id='3008'>0.22831E+02</wgt>
<wgt id='3009'>0.22715E+02</wgt>
<wgt id='3010'>0.22805E+02</wgt>
<wgt id='3011'>0.22815E+02</wgt>
<wgt id='3012'>0.22788E+02</wgt>
<wgt id='3013'>0.22855E+02</wgt>
<wgt id='3014'>0.22753E+02</wgt>
<wgt id='3015'>0.22784E+02</wgt>
<wgt id='3016'>0.22815E+02</wgt>
<wgt id='3017'>0.22754E+02</wgt>
<wgt id='3018'>0.22799E+02</wgt>
<wgt id='3019'>0.22901E+02</wgt>
<wgt id='3020'>0.22883E+02</wgt>
<wgt id='3021'>0.22893E+02</wgt>
<wgt id='3022'>0.22816E+02</wgt>
<wgt id='3023'>0.22850E+02</wgt>
<wgt id='3024'>0.22861E+02</wgt>
<wgt id='3025'>0.22849E+02</wgt>
<wgt id='3026'>0.22749E+02</wgt>
<wgt id='3027'>0.22832E+02</wgt>
<wgt id='3028'>0.22837E+02</wgt>
<wgt id='3029'>0.22742E+02</wgt>
<wgt id='3030'>0.22967E+02</wgt>
<wgt id='3031'>0.22891E+02</wgt>
<wgt id='3032'>0.22788E+02</wgt>
<wgt id='3033'>0.22839E+02</wgt>
<wgt id='3034'>0.22796E+02</wgt>
<wgt id='3035'>0.22937E+02</wgt>
<wgt id='3036'>0.22854E+02</wgt>
<wgt id='3037'>0.22794E+02</wgt>
<wgt id='3038'>0.22823E+02</wgt>
<wgt id='3039'>0.22875E+02</wgt>
<wgt id='3040'>0.22764E+02</wgt>
<wgt id='3041'>0.22799E+02</wgt>
<wgt id='3042'>0.22781E+02</wgt>
<wgt id='3043'>0.22763E+02</wgt>
<wgt id='3044'>0.22856E+02</wgt>
<wgt id='3045'>0.22847E+02</wgt>
<wgt id='3046'>0.22836E+02</wgt>
<wgt id='3047'>0.22808E+02</wgt>
<wgt id='3048'>0.22819E+02</wgt>
<wgt id='3049'>0.22795E+02</wgt>
<wgt id='3050'>0.22789E+02</wgt>
<wgt id='3051'>0.22868E+02</wgt>
<wgt id='3052'>0.22812E+02</wgt>
<wgt id='3053'>0.22808E+02</wgt>
<wgt id='3054'>0.22813E+02</wgt>
<wgt id='3055'>0.22830E+02</wgt>
<wgt id='3056'>0.22824E+02</wgt>
<wgt id='3057'>0.22817E+02</wgt>
<wgt id='3058'>0.22802E+02</wgt>
<wgt id='3059'>0.22821E+02</wgt>
<wgt id='3060'>0.22817E+02</wgt>
<wgt id='3061'>0.22836E+02</wgt>
<wgt id='3062'>0.22815E+02</wgt>
<wgt id='3063'>0.22822E+02</wgt>
<wgt id='3064'>0.22813E+02</wgt>
<wgt id='3065'>0.22821E+02</wgt>
<wgt id='3066'>0.22820E+02</wgt>
<wgt id='3067'>0.22806E+02</wgt>
<wgt id='3068'>0.22812E+02</wgt>
<wgt id='3069'>0.22799E+02</wgt>
<wgt id='3070'>0.22801E+02</wgt>
<wgt id='3071'>0.22817E+02</wgt>
<wgt id='3072'>0.22824E+02</wgt>
<wgt id='3073'>0.22812E+02</wgt>
<wgt id='3074'>0.22825E+02</wgt>
<wgt id='3075'>0.22819E+02</wgt>
<wgt id='3076'>0.22815E+02</wgt>
<wgt id='3077'>0.22810E+02</wgt>
<wgt id='3078'>0.22823E+02</wgt>
<wgt id='3079'>0.22809E+02</wgt>
<wgt id='3080'>0.22805E+02</wgt>
<wgt id='3081'>0.22809E+02</wgt>
<wgt id='3082'>0.22807E+02</wgt>
<wgt id='3083'>0.22820E+02</wgt>
<wgt id='3084'>0.22813E+02</wgt>
<wgt id='3085'>0.22815E+02</wgt>
<wgt id='3086'>0.22820E+02</wgt>
<wgt id='3087'>0.22815E+02</wgt>
<wgt id='3088'>0.22810E+02</wgt>
<wgt id='3089'>0.22816E+02</wgt>
<wgt id='3090'>0.22810E+02</wgt>
<wgt id='3091'>0.22809E+02</wgt>
<wgt id='3092'>0.22813E+02</wgt>
<wgt id='3093'>0.22815E+02</wgt>
<wgt id='3094'>0.22814E+02</wgt>
<wgt id='3095'>0.22816E+02</wgt>
<wgt id='3096'>0.22808E+02</wgt>
<wgt id='3097'>0.22808E+02</wgt>
<wgt id='3098'>0.22812E+02</wgt>
<wgt id='3099'>0.22816E+02</wgt>
<wgt id='3100'>0.22814E+02</wgt>
<wgt id='3101'>0.22167E+02</wgt>
<wgt id='3102'>0.23452E+02</wgt>
<wgt id='5000'>0.21594E+02</wgt>
<wgt id='5001'>0.21602E+02</wgt>
<wgt id='5002'>0.21551E+02</wgt>
<wgt id='5003'>0.21626E+02</wgt>
<wgt id='5004'>0.21532E+02</wgt>
<wgt id='5005'>0.21754E+02</wgt>
<wgt id='5006'>0.21201E+02</wgt>
<wgt id='5007'>0.21385E+02</wgt>
<wgt id='5008'>0.21773E+02</wgt>
<wgt id='5009'>0.21476E+02</wgt>
<wgt id='5010'>0.21641E+02</wgt>
<wgt id='5011'>0.21697E+02</wgt>
<wgt id='5012'>0.21463E+02</wgt>
<wgt id='5013'>0.21788E+02</wgt>
<wgt id='5014'>0.21528E+02</wgt>
<wgt id='5015'>0.21581E+02</wgt>
<wgt id='5016'>0.21576E+02</wgt>
<wgt id='5017'>0.21483E+02</wgt>
<wgt id='5018'>0.21716E+02</wgt>
<wgt id='5019'>0.21478E+02</wgt>
<wgt id='5020'>0.21711E+02</wgt>
<wgt id='5021'>0.21564E+02</wgt>
<wgt id='5022'>0.21611E+02</wgt>
<wgt id='5023'>0.21461E+02</wgt>
<wgt id='5024'>0.21738E+02</wgt>
<wgt id='5025'>0.21609E+02</wgt>
<wgt id='5026'>0.21581E+02</wgt>
<wgt id='5027'>0.21683E+02</wgt>
<wgt id='5028'>0.21436E+02</wgt>
<wgt id='5029'>0.21487E+02</wgt>
<wgt id='5030'>0.21651E+02</wgt>
<wgt id='5031'>0.21502E+02</wgt>
<wgt id='5032'>0.21720E+02</wgt>
<wgt id='5033'>0.21494E+02</wgt>
<wgt id='5034'>0.21686E+02</wgt>
<wgt id='5035'>0.21439E+02</wgt>
<wgt id='5036'>0.21730E+02</wgt>
<wgt id='5037'>0.21355E+02</wgt>
<wgt id='5038'>0.21868E+02</wgt>
<wgt id='5039'>0.21944E+02</wgt>
<wgt id='5040'>0.21421E+02</wgt>
<wgt id='5041'>0.21606E+02</wgt>
<wgt id='5042'>0.21584E+02</wgt>
<wgt id='5043'>0.21728E+02</wgt>
<wgt id='5044'>0.21442E+02</wgt>
<wgt id='5045'>0.21246E+02</wgt>
<wgt id='5046'>0.21693E+02</wgt>
<wgt id='5047'>0.21200E+02</wgt>
<wgt id='5048'>0.21919E+02</wgt>
<wgt id='5049'>0.21562E+02</wgt>
<wgt id='5050'>0.21660E+02</wgt>
<wgt id='5051'>0.21618E+02</wgt>
<wgt id='5052'>0.21576E+02</wgt>
<wgt id='5053'>0.20802E+02</wgt>
<wgt id='5054'>0.21042E+02</wgt>
<wgt id='5055'>0.21458E+02</wgt>
<wgt id='5056'>0.21827E+02</wgt>
<wgt id='5060'>0.20920E+02</wgt>
<wgt id='5070'>0.22301E+02</wgt>
<wgt id='4000'>0.22657E+02</wgt>
<wgt id='4001'>0.22638E+02</wgt>
<wgt id='4002'>0.22706E+02</wgt>
<wgt id='4003'>0.22181E+02</wgt>
<wgt id='4004'>0.22849E+02</wgt>
<wgt id='4005'>0.22759E+02</wgt>
<wgt id='4006'>0.22598E+02</wgt>
<wgt id='4007'>0.22415E+02</wgt>
<wgt id='4008'>0.22837E+02</wgt>
<wgt id='4009'>0.22567E+02</wgt>
<wgt id='4010'>0.22751E+02</wgt>
<wgt id='4011'>0.22767E+02</wgt>
<wgt id='4012'>0.22578E+02</wgt>
<wgt id='4013'>0.22327E+02</wgt>
<wgt id='4014'>0.22864E+02</wgt>
<wgt id='4015'>0.22969E+02</wgt>
<wgt id='4016'>0.22462E+02</wgt>
<wgt id='4017'>0.22345E+02</wgt>
<wgt id='4018'>0.23028E+02</wgt>
<wgt id='4019'>0.22717E+02</wgt>
<wgt id='4020'>0.22576E+02</wgt>
<wgt id='4021'>0.22644E+02</wgt>
<wgt id='4022'>0.22667E+02</wgt>
<wgt id='4023'>0.22699E+02</wgt>
<wgt id='4024'>0.22602E+02</wgt>
<wgt id='4025'>0.22710E+02</wgt>
<wgt id='4026'>0.22602E+02</wgt>
<wgt id='4027'>0.22687E+02</wgt>
<wgt id='4028'>0.22610E+02</wgt>
<wgt id='4029'>0.22651E+02</wgt>
<wgt id='4030'>0.22659E+02</wgt>
<wgt id='4031'>0.22683E+02</wgt>
<wgt id='4032'>0.22622E+02</wgt>
<wgt id='4033'>0.22629E+02</wgt>
<wgt id='4034'>0.22722E+02</wgt>
<wgt id='4035'>0.22566E+02</wgt>
<wgt id='4036'>0.22745E+02</wgt>
<wgt id='4037'>0.22600E+02</wgt>
<wgt id='4038'>0.22703E+02</wgt>
<wgt id='4039'>0.22551E+02</wgt>
<wgt id='4040'>0.22729E+02</wgt>
<wgt id='4041'>0.22620E+02</wgt>
<wgt id='4042'>0.22696E+02</wgt>
<wgt id='4043'>0.22358E+02</wgt>
<wgt id='4044'>0.22961E+02</wgt>
<wgt id='4045'>0.22697E+02</wgt>
<wgt id='4046'>0.22653E+02</wgt>
<wgt id='4047'>0.22746E+02</wgt>
<wgt id='4048'>0.22383E+02</wgt>
<wgt id='4049'>0.22389E+02</wgt>
<wgt id='4050'>0.22851E+02</wgt>
<wgt id='4051'>0.22641E+02</wgt>
<wgt id='4052'>0.22650E+02</wgt>
<wgt id='4053'>0.21879E+02</wgt>
<wgt id='4054'>0.22517E+02</wgt>
<wgt id='4055'>0.22611E+02</wgt>
<wgt id='4056'>0.22791E+02</wgt>
<wgt id='4060'>0.21923E+02</wgt>
<wgt id='4070'>0.23421E+02</wgt>
<wgt id='4080'>0.25622E+02</wgt>
<wgt id='6000'>0.22781E+02</wgt>
<wgt id='6001'>0.22817E+02</wgt>
<wgt id='6002'>0.22742E+02</wgt>
<wgt id='6003'>0.22794E+02</wgt>
<wgt id='6004'>0.22772E+02</wgt>
<wgt id='6005'>0.22799E+02</wgt>
<wgt id='6006'>0.22764E+02</wgt>
<wgt id='6007'>0.22722E+02</wgt>
<wgt id='6008'>0.22846E+02</wgt>
<wgt id='6009'>0.22884E+02</wgt>
<wgt id='6010'>0.22680E+02</wgt>
<wgt id='6011'>0.22833E+02</wgt>
<wgt id='6012'>0.22669E+02</wgt>
<wgt id='6013'>0.22753E+02</wgt>
<wgt id='6014'>0.22830E+02</wgt>
<wgt id='6015'>0.22729E+02</wgt>
<wgt id='6016'>0.22809E+02</wgt>
<wgt id='6017'>0.22641E+02</wgt>
<wgt id='6018'>0.22947E+02</wgt>
<wgt id='6019'>0.22775E+02</wgt>
<wgt id='6020'>0.22785E+02</wgt>
<wgt id='6021'>0.22734E+02</wgt>
<wgt id='6022'>0.22845E+02</wgt>
<wgt id='6023'>0.22621E+02</wgt>
<wgt id='6024'>0.22894E+02</wgt>
<wgt id='6025'>0.22907E+02</wgt>
<wgt id='6026'>0.22565E+02</wgt>
<wgt id='6027'>0.22840E+02</wgt>
<wgt id='6028'>0.22782E+02</wgt>
<wgt id='6029'>0.22766E+02</wgt>
<wgt id='6030'>0.22797E+02</wgt>
<wgt id='6031'>0.22666E+02</wgt>
<wgt id='6032'>0.22898E+02</wgt>
<wgt id='6033'>0.22854E+02</wgt>
<wgt id='6034'>0.22707E+02</wgt>
<wgt id='6035'>0.22810E+02</wgt>
<wgt id='6036'>0.22753E+02</wgt>
<wgt id='6037'>0.22818E+02</wgt>
<wgt id='6038'>0.22781E+02</wgt>
<wgt id='6039'>0.22728E+02</wgt>
<wgt id='6040'>0.22840E+02</wgt>
<wgt id='6041'>0.22704E+02</wgt>
<wgt id='6042'>0.22873E+02</wgt>
<wgt id='6043'>0.23080E+02</wgt>
<wgt id='6044'>0.22688E+02</wgt>
<wgt id='6045'>0.22758E+02</wgt>
<wgt id='6046'>0.22843E+02</wgt>
<wgt id='6047'>0.22926E+02</wgt>
<wgt id='6048'>0.22649E+02</wgt>
<wgt id='6049'>0.22835E+02</wgt>
<wgt id='6050'>0.22757E+02</wgt>
<wgt id='7000'>0.21380E+02</wgt>
<wgt id='7001'>0.21408E+02</wgt>
<wgt id='7002'>0.21344E+02</wgt>
<wgt id='7003'>0.21429E+02</wgt>
<wgt id='7004'>0.21332E+02</wgt>
<wgt id='7005'>0.21410E+02</wgt>
<wgt id='7006'>0.21368E+02</wgt>
<wgt id='7007'>0.21311E+02</wgt>
<wgt id='7008'>0.21450E+02</wgt>
<wgt id='7009'>0.21428E+02</wgt>
<wgt id='7010'>0.21334E+02</wgt>
<wgt id='7011'>0.21161E+02</wgt>
<wgt id='7012'>0.21475E+02</wgt>
<wgt id='7013'>0.21377E+02</wgt>
<wgt id='7014'>0.21385E+02</wgt>
<wgt id='7015'>0.21315E+02</wgt>
<wgt id='7016'>0.21450E+02</wgt>
<wgt id='7017'>0.21194E+02</wgt>
<wgt id='7018'>0.21480E+02</wgt>
<wgt id='7019'>0.21359E+02</wgt>
<wgt id='7020'>0.21409E+02</wgt>
<wgt id='7021'>0.21387E+02</wgt>
<wgt id='7022'>0.21374E+02</wgt>
<wgt id='7023'>0.21426E+02</wgt>
<wgt id='7024'>0.21315E+02</wgt>
<wgt id='7025'>0.21418E+02</wgt>
<wgt id='7026'>0.21287E+02</wgt>
<wgt id='7027'>0.21436E+02</wgt>
<wgt id='7028'>0.21379E+02</wgt>
<wgt id='7029'>0.21404E+02</wgt>
<wgt id='7030'>0.21289E+02</wgt>
<wgt id='7031'>0.21329E+02</wgt>
<wgt id='7032'>0.21489E+02</wgt>
<wgt id='7033'>0.21395E+02</wgt>
<wgt id='7034'>0.21371E+02</wgt>
<wgt id='7035'>0.21323E+02</wgt>
<wgt id='7036'>0.21420E+02</wgt>
<wgt id='7037'>0.21382E+02</wgt>
<wgt id='7038'>0.21405E+02</wgt>
<wgt id='7039'>0.21316E+02</wgt>
<wgt id='7040'>0.21426E+02</wgt>
<wgt id='7041'>0.21390E+02</wgt>
<wgt id='7042'>0.21375E+02</wgt>
<wgt id='7043'>0.21394E+02</wgt>
<wgt id='7044'>0.21294E+02</wgt>
<wgt id='7045'>0.21231E+02</wgt>
<wgt id='7046'>0.21531E+02</wgt>
<wgt id='7047'>0.21466E+02</wgt>
<wgt id='7048'>0.21350E+02</wgt>
<wgt id='7049'>0.21349E+02</wgt>
<wgt id='7050'>0.21454E+02</wgt>
<wgt id='7060'>0.35291E+02</wgt>
<wgt id='8000'>0.21784E+02</wgt>
<wgt id='8001'>0.21779E+02</wgt>
<wgt id='8002'>0.21790E+02</wgt>
<wgt id='8003'>0.21785E+02</wgt>
<wgt id='8004'>0.21783E+02</wgt>
<wgt id='8005'>0.21734E+02</wgt>
<wgt id='8006'>0.21784E+02</wgt>
<wgt id='8007'>0.21777E+02</wgt>
<wgt id='8008'>0.21826E+02</wgt>
<wgt id='8009'>0.21869E+02</wgt>
<wgt id='8010'>0.21778E+02</wgt>
<wgt id='8011'>0.21779E+02</wgt>
<wgt id='8012'>0.21745E+02</wgt>
<wgt id='8013'>0.21766E+02</wgt>
<wgt id='8014'>0.21798E+02</wgt>
<wgt id='8015'>0.21765E+02</wgt>
<wgt id='8016'>0.21804E+02</wgt>
<wgt id='8017'>0.21801E+02</wgt>
<wgt id='8018'>0.21817E+02</wgt>
<wgt id='8019'>0.21782E+02</wgt>
<wgt id='8020'>0.21783E+02</wgt>
<wgt id='8021'>0.21769E+02</wgt>
<wgt id='8022'>0.21784E+02</wgt>
<wgt id='8023'>0.21759E+02</wgt>
<wgt id='8024'>0.21738E+02</wgt>
<wgt id='8025'>0.21771E+02</wgt>
<wgt id='8026'>0.21807E+02</wgt>
<wgt id='8027'>0.21781E+02</wgt>
<wgt id='8028'>0.21803E+02</wgt>
<wgt id='8029'>0.21783E+02</wgt>
<wgt id='8500'>0.22742E+02</wgt>
<wgt id='8501'>0.22605E+02</wgt>
<wgt id='8502'>0.22686E+02</wgt>
<wgt id='8503'>0.22779E+02</wgt>
<wgt id='8504'>0.22691E+02</wgt>
<wgt id='8505'>0.22827E+02</wgt>
<wgt id='8506'>0.22744E+02</wgt>
<wgt id='8507'>0.22785E+02</wgt>
<wgt id='8508'>0.22647E+02</wgt>
<wgt id='8509'>0.22816E+02</wgt>
<wgt id='8510'>0.22858E+02</wgt>
<wgt id='8511'>0.22724E+02</wgt>
<wgt id='8512'>0.22795E+02</wgt>
<wgt id='8513'>0.22710E+02</wgt>
<wgt id='8514'>0.22586E+02</wgt>
<wgt id='8515'>0.22859E+02</wgt>
<wgt id='8516'>0.22721E+02</wgt>
<wgt id='8517'>0.22698E+02</wgt>
<wgt id='8518'>0.22572E+02</wgt>
<wgt id='8519'>0.22535E+02</wgt>
<wgt id='8520'>0.22724E+02</wgt>
<wgt id='8521'>0.22647E+02</wgt>
<wgt id='8522'>0.22806E+02</wgt>
<wgt id='8523'>0.22654E+02</wgt>
<wgt id='8524'>0.22801E+02</wgt>
<wgt id='8525'>0.22737E+02</wgt>
<wgt id='8526'>0.22689E+02</wgt>
<wgt id='8527'>0.22760E+02</wgt>
<wgt id='8528'>0.22679E+02</wgt>
<wgt id='8529'>0.22743E+02</wgt>
<wgt id='8530'>0.22728E+02</wgt>
<wgt id='8531'>0.22737E+02</wgt>
<wgt id='8532'>0.22742E+02</wgt>
<wgt id='8533'>0.22693E+02</wgt>
<wgt id='8534'>0.22741E+02</wgt>
<wgt id='8535'>0.22791E+02</wgt>
<wgt id='8536'>0.22710E+02</wgt>
<wgt id='8537'>0.22745E+02</wgt>
<wgt id='8538'>0.22724E+02</wgt>
<wgt id='8539'>0.22747E+02</wgt>
<wgt id='8540'>0.22739E+02</wgt>
<wgt id='8541'>0.22758E+02</wgt>
<wgt id='8542'>0.22753E+02</wgt>
<wgt id='8543'>0.22731E+02</wgt>
<wgt id='8544'>0.22764E+02</wgt>
<wgt id='8545'>0.22759E+02</wgt>
<wgt id='8546'>0.22773E+02</wgt>
<wgt id='8547'>0.22718E+02</wgt>
<wgt id='8548'>0.22718E+02</wgt>
<wgt id='8549'>0.22752E+02</wgt>
<wgt id='8550'>0.22736E+02</wgt>
<wgt id='8551'>0.22729E+02</wgt>
<wgt id='8552'>0.22741E+02</wgt>
<wgt id='8553'>0.22724E+02</wgt>
<wgt id='8554'>0.22734E+02</wgt>
<wgt id='8555'>0.22743E+02</wgt>
<wgt id='8556'>0.22737E+02</wgt>
<wgt id='8557'>0.22742E+02</wgt>
<wgt id='8558'>0.22768E+02</wgt>
<wgt id='8559'>0.22733E+02</wgt>
<wgt id='8560'>0.22715E+02</wgt>
<wgt id='8561'>0.22744E+02</wgt>
<wgt id='8562'>0.22725E+02</wgt>
<wgt id='8563'>0.22744E+02</wgt>
<wgt id='8564'>0.22734E+02</wgt>
<wgt id='8565'>0.22745E+02</wgt>
<wgt id='8566'>0.22741E+02</wgt>
<wgt id='8567'>0.22740E+02</wgt>
<wgt id='8568'>0.22754E+02</wgt>
<wgt id='8569'>0.22750E+02</wgt>
<wgt id='8570'>0.22743E+02</wgt>
<wgt id='8571'>0.22726E+02</wgt>
<wgt id='8572'>0.22731E+02</wgt>
<wgt id='8573'>0.22730E+02</wgt>
<wgt id='8574'>0.22746E+02</wgt>
<wgt id='8575'>0.22739E+02</wgt>
<wgt id='8576'>0.22739E+02</wgt>
<wgt id='8577'>0.22739E+02</wgt>
<wgt id='8578'>0.22744E+02</wgt>
<wgt id='8579'>0.22758E+02</wgt>
<wgt id='8580'>0.22741E+02</wgt>
<wgt id='8581'>0.22750E+02</wgt>
<wgt id='8582'>0.22726E+02</wgt>
<wgt id='8583'>0.22754E+02</wgt>
<wgt id='8584'>0.22751E+02</wgt>
<wgt id='8585'>0.22750E+02</wgt>
<wgt id='8586'>0.22758E+02</wgt>
<wgt id='8587'>0.22740E+02</wgt>
<wgt id='8588'>0.22737E+02</wgt>
<wgt id='8589'>0.22743E+02</wgt>
<wgt id='8590'>0.22741E+02</wgt>
<wgt id='8591'>0.22738E+02</wgt>
<wgt id='8592'>0.22741E+02</wgt>
<wgt id='8593'>0.22733E+02</wgt>
<wgt id='8594'>0.22745E+02</wgt>
<wgt id='8595'>0.22745E+02</wgt>
<wgt id='8596'>0.22737E+02</wgt>
<wgt id='8597'>0.22746E+02</wgt>
<wgt id='8598'>0.22748E+02</wgt>
<wgt id='8599'>0.22746E+02</wgt>
<wgt id='8600'>0.22742E+02</wgt>
<wgt id='8601'>0.22274E+02</wgt>
<wgt id='8602'>0.23220E+02</wgt>
<wgt id='9000'>0.21497E+02</wgt>
<wgt id='9001'>0.21527E+02</wgt>
<wgt id='9002'>0.21478E+02</wgt>
<wgt id='9003'>0.21511E+02</wgt>
<wgt id='9004'>0.21543E+02</wgt>
<wgt id='9005'>0.21479E+02</wgt>
<wgt id='9006'>0.21618E+02</wgt>
<wgt id='9007'>0.21645E+02</wgt>
<wgt id='9008'>0.21556E+02</wgt>
<wgt id='9009'>0.21481E+02</wgt>
<wgt id='9010'>0.21471E+02</wgt>
<wgt id='9011'>0.21571E+02</wgt>
<wgt id='9012'>0.21471E+02</wgt>
<wgt id='9013'>0.21510E+02</wgt>
<wgt id='9014'>0.21519E+02</wgt>
<wgt id='9015'>0.21436E+02</wgt>
<wgt id='9016'>0.21596E+02</wgt>
<wgt id='9017'>0.21368E+02</wgt>
<wgt id='9018'>0.21537E+02</wgt>
<wgt id='9019'>0.21544E+02</wgt>
<wgt id='9020'>0.21702E+02</wgt>
<wgt id='9021'>0.21484E+02</wgt>
<wgt id='9022'>0.21535E+02</wgt>
<wgt id='9023'>0.21376E+02</wgt>
<wgt id='9024'>0.21416E+02</wgt>
<wgt id='9025'>0.21599E+02</wgt>
<wgt id='9026'>0.21498E+02</wgt>
<wgt id='9027'>0.21468E+02</wgt>
<wgt id='9028'>0.21532E+02</wgt>
<wgt id='9029'>0.21502E+02</wgt>
<wgt id='9030'>0.21495E+02</wgt>
<wgt id='9031'>0.21488E+02</wgt>
<wgt id='9032'>0.21522E+02</wgt>
<wgt id='9033'>0.21531E+02</wgt>
<wgt id='9034'>0.21491E+02</wgt>
<wgt id='9035'>0.21527E+02</wgt>
<wgt id='9036'>0.21503E+02</wgt>
<wgt id='9037'>0.21521E+02</wgt>
<wgt id='9038'>0.21511E+02</wgt>
<wgt id='9039'>0.21511E+02</wgt>
<wgt id='9040'>0.21469E+02</wgt>
<wgt id='9041'>0.21495E+02</wgt>
<wgt id='9042'>0.21513E+02</wgt>
<wgt id='9043'>0.21476E+02</wgt>
<wgt id='9044'>0.21505E+02</wgt>
<wgt id='9045'>0.21509E+02</wgt>
<wgt id='9046'>0.21469E+02</wgt>
<wgt id='9047'>0.21496E+02</wgt>
<wgt id='9048'>0.21509E+02</wgt>
<wgt id='9049'>0.21485E+02</wgt>
<wgt id='9050'>0.21498E+02</wgt>
<wgt id='9051'>0.21511E+02</wgt>
<wgt id='9052'>0.21511E+02</wgt>
<wgt id='9053'>0.21498E+02</wgt>
<wgt id='9054'>0.21482E+02</wgt>
<wgt id='9055'>0.21484E+02</wgt>
<wgt id='9056'>0.21511E+02</wgt>
<wgt id='9057'>0.21494E+02</wgt>
<wgt id='9058'>0.21479E+02</wgt>
<wgt id='9059'>0.21485E+02</wgt>
<wgt id='9060'>0.21487E+02</wgt>
<wgt id='9061'>0.21497E+02</wgt>
<wgt id='9062'>0.21500E+02</wgt>
<wgt id='9063'>0.21505E+02</wgt>
<wgt id='9064'>0.21497E+02</wgt>
<wgt id='9065'>0.21495E+02</wgt>
<wgt id='9066'>0.21495E+02</wgt>
<wgt id='9067'>0.21505E+02</wgt>
<wgt id='9068'>0.21500E+02</wgt>
<wgt id='9069'>0.21513E+02</wgt>
<wgt id='9070'>0.21493E+02</wgt>
<wgt id='9071'>0.21510E+02</wgt>
<wgt id='9072'>0.21511E+02</wgt>
<wgt id='9073'>0.21492E+02</wgt>
<wgt id='9074'>0.21499E+02</wgt>
<wgt id='9075'>0.21493E+02</wgt>
<wgt id='9076'>0.21495E+02</wgt>
<wgt id='9077'>0.21502E+02</wgt>
<wgt id='9078'>0.21499E+02</wgt>
<wgt id='9079'>0.21493E+02</wgt>
<wgt id='9080'>0.21515E+02</wgt>
<wgt id='9081'>0.21496E+02</wgt>
<wgt id='9082'>0.21502E+02</wgt>
<wgt id='9083'>0.21490E+02</wgt>
<wgt id='9084'>0.21490E+02</wgt>
<wgt id='9085'>0.21489E+02</wgt>
<wgt id='9086'>0.21500E+02</wgt>
<wgt id='9087'>0.21480E+02</wgt>
<wgt id='9088'>0.21490E+02</wgt>
<wgt id='9089'>0.21491E+02</wgt>
<wgt id='9090'>0.21501E+02</wgt>
<wgt id='9091'>0.21494E+02</wgt>
<wgt id='9092'>0.21496E+02</wgt>
<wgt id='9093'>0.21492E+02</wgt>
<wgt id='9094'>0.21494E+02</wgt>
<wgt id='9095'>0.21499E+02</wgt>
<wgt id='9096'>0.21492E+02</wgt>
<wgt id='9097'>0.21499E+02</wgt>
<wgt id='9098'>0.21496E+02</wgt>
<wgt id='9099'>0.21492E+02</wgt>
<wgt id='9100'>0.21496E+02</wgt>
<wgt id='9101'>0.21106E+02</wgt>
<wgt id='9102'>0.21929E+02</wgt>
<wgt id='10000'>0.22732E+02</wgt>
<wgt id='10001'>0.22771E+02</wgt>
<wgt id='10002'>0.22589E+02</wgt>
<wgt id='10003'>0.22722E+02</wgt>
<wgt id='10004'>0.22619E+02</wgt>
<wgt id='10005'>0.22739E+02</wgt>
<wgt id='10006'>0.22634E+02</wgt>
<wgt id='10007'>0.22729E+02</wgt>
<wgt id='10008'>0.22747E+02</wgt>
<wgt id='10009'>0.22670E+02</wgt>
<wgt id='10010'>0.22760E+02</wgt>
<wgt id='10011'>0.22663E+02</wgt>
<wgt id='10012'>0.22640E+02</wgt>
<wgt id='10013'>0.22733E+02</wgt>
<wgt id='10014'>0.22728E+02</wgt>
<wgt id='10015'>0.22774E+02</wgt>
<wgt id='10016'>0.22694E+02</wgt>
<wgt id='10017'>0.22590E+02</wgt>
<wgt id='10018'>0.22786E+02</wgt>
<wgt id='10019'>0.22617E+02</wgt>
<wgt id='10020'>0.22665E+02</wgt>
<wgt id='10021'>0.22703E+02</wgt>
<wgt id='10022'>0.22688E+02</wgt>
<wgt id='10023'>0.22749E+02</wgt>
<wgt id='10024'>0.22716E+02</wgt>
<wgt id='10025'>0.22719E+02</wgt>
<wgt id='10026'>0.22830E+02</wgt>
<wgt id='10027'>0.22779E+02</wgt>
<wgt id='10028'>0.23055E+02</wgt>
<wgt id='10029'>0.22748E+02</wgt>
<wgt id='10030'>0.22723E+02</wgt>
<wgt id='10031'>0.22274E+02</wgt>
<wgt id='10032'>0.23220E+02</wgt>
<wgt id='11000'>0.21487E+02</wgt>
<wgt id='11001'>0.21176E+02</wgt>
<wgt id='11002'>0.21461E+02</wgt>
<wgt id='11003'>0.21475E+02</wgt>
<wgt id='11004'>0.21406E+02</wgt>
<wgt id='11005'>0.21457E+02</wgt>
<wgt id='11006'>0.21490E+02</wgt>
<wgt id='11007'>0.21479E+02</wgt>
<wgt id='11008'>0.21454E+02</wgt>
<wgt id='11009'>0.21477E+02</wgt>
<wgt id='11010'>0.21735E+02</wgt>
<wgt id='11011'>0.21462E+02</wgt>
<wgt id='11012'>0.21479E+02</wgt>
<wgt id='11013'>0.21504E+02</wgt>
<wgt id='11014'>0.21476E+02</wgt>
<wgt id='11015'>0.21468E+02</wgt>
<wgt id='11016'>0.21496E+02</wgt>
<wgt id='11017'>0.21513E+02</wgt>
<wgt id='11018'>0.21490E+02</wgt>
<wgt id='11019'>0.21497E+02</wgt>
<wgt id='11020'>0.21485E+02</wgt>
<wgt id='11021'>0.21500E+02</wgt>
<wgt id='11022'>0.21532E+02</wgt>
<wgt id='11023'>0.21487E+02</wgt>
<wgt id='11024'>0.21470E+02</wgt>
<wgt id='11025'>0.21473E+02</wgt>
<wgt id='11026'>0.21488E+02</wgt>
<wgt id='11027'>0.21495E+02</wgt>
<wgt id='11028'>0.21480E+02</wgt>
<wgt id='11029'>0.21422E+02</wgt>
<wgt id='11030'>0.21486E+02</wgt>
<wgt id='11031'>0.21106E+02</wgt>
<wgt id='11032'>0.21929E+02</wgt>
<wgt id='12000'>0.22282E+02</wgt>
<wgt id='12001'>0.22255E+02</wgt>
<wgt id='12002'>0.22308E+02</wgt>
<wgt id='12003'>0.22333E+02</wgt>
<wgt id='12004'>0.22230E+02</wgt>
<wgt id='12005'>0.22303E+02</wgt>
<wgt id='12006'>0.22261E+02</wgt>
<wgt id='12007'>0.22331E+02</wgt>
<wgt id='12008'>0.22234E+02</wgt>
<wgt id='12009'>0.22287E+02</wgt>
<wgt id='12010'>0.22277E+02</wgt>
<wgt id='12011'>0.22156E+02</wgt>
<wgt id='12012'>0.22406E+02</wgt>
<wgt id='12013'>0.22231E+02</wgt>
<wgt id='12014'>0.22332E+02</wgt>
<wgt id='12015'>0.22364E+02</wgt>
<wgt id='12016'>0.22215E+02</wgt>
<wgt id='12017'>0.22356E+02</wgt>
<wgt id='12018'>0.22200E+02</wgt>
<wgt id='12019'>0.22344E+02</wgt>
<wgt id='12020'>0.22222E+02</wgt>
<wgt id='12021'>0.22325E+02</wgt>
<wgt id='12022'>0.22221E+02</wgt>
<wgt id='12023'>0.22076E+02</wgt>
<wgt id='12024'>0.22410E+02</wgt>
<wgt id='12025'>0.22170E+02</wgt>
<wgt id='12026'>0.22419E+02</wgt>
<wgt id='12027'>0.22521E+02</wgt>
<wgt id='12028'>0.22072E+02</wgt>
<wgt id='12050'>0.22282E+02</wgt>
<wgt id='12051'>0.22323E+02</wgt>
<wgt id='12052'>0.22204E+02</wgt>
<wgt id='12053'>0.22319E+02</wgt>
<wgt id='12054'>0.22231E+02</wgt>
<wgt id='12055'>0.22280E+02</wgt>
<wgt id='12056'>0.22479E+02</wgt>
<wgt id='12057'>0.22261E+02</wgt>
<wgt id='12058'>0.22315E+02</wgt>
<wgt id='12059'>0.22329E+02</wgt>
<wgt id='12060'>0.22248E+02</wgt>
<wgt id='12061'>0.22162E+02</wgt>
<wgt id='12062'>0.22341E+02</wgt>
<wgt id='12063'>0.22336E+02</wgt>
<wgt id='13000'>0.22142E+02</wgt>
<wgt id='13001'>0.22125E+02</wgt>
<wgt id='13002'>0.22155E+02</wgt>
<wgt id='13003'>0.22176E+02</wgt>
<wgt id='13004'>0.22104E+02</wgt>
<wgt id='13005'>0.22182E+02</wgt>
<wgt id='13006'>0.22098E+02</wgt>
<wgt id='13007'>0.22222E+02</wgt>
<wgt id='13008'>0.22060E+02</wgt>
<wgt id='13009'>0.22087E+02</wgt>
<wgt id='13010'>0.22193E+02</wgt>
<wgt id='13011'>0.22209E+02</wgt>
<wgt id='13012'>0.22072E+02</wgt>
<wgt id='13013'>0.22100E+02</wgt>
<wgt id='13014'>0.22181E+02</wgt>
<wgt id='13015'>0.22171E+02</wgt>
<wgt id='13016'>0.22126E+02</wgt>
<wgt id='13017'>0.22119E+02</wgt>
<wgt id='13018'>0.22158E+02</wgt>
<wgt id='13019'>0.22152E+02</wgt>
<wgt id='13020'>0.22127E+02</wgt>
<wgt id='13021'>0.22179E+02</wgt>
<wgt id='13022'>0.22078E+02</wgt>
<wgt id='13023'>0.21997E+02</wgt>
<wgt id='13024'>0.22281E+02</wgt>
<wgt id='13025'>0.21894E+02</wgt>
<wgt id='13026'>0.22339E+02</wgt>
<wgt id='13027'>0.22053E+02</wgt>
<wgt id='13028'>0.22252E+02</wgt>
<wgt id='13050'>0.22142E+02</wgt>
<wgt id='13051'>0.22169E+02</wgt>
<wgt id='13052'>0.22007E+02</wgt>
<wgt id='13053'>0.22155E+02</wgt>
<wgt id='13054'>0.22126E+02</wgt>
<wgt id='13055'>0.21734E+02</wgt>
<wgt id='13056'>0.22254E+02</wgt>
<wgt id='13057'>0.22103E+02</wgt>
<wgt id='13058'>0.22223E+02</wgt>
<wgt id='13059'>0.22145E+02</wgt>
<wgt id='13060'>0.21666E+02</wgt>
<wgt id='13061'>0.22115E+02</wgt>
<wgt id='13062'>0.22261E+02</wgt>
<wgt id='13063'>0.22296E+02</wgt>
<wgt id='14000'>0.22564E+02</wgt>
<wgt id='14001'>0.22561E+02</wgt>
<wgt id='14002'>0.22558E+02</wgt>
<wgt id='14003'>0.22555E+02</wgt>
<wgt id='14004'>0.22551E+02</wgt>
<wgt id='14005'>0.22548E+02</wgt>
<wgt id='14006'>0.22545E+02</wgt>
<wgt id='14007'>0.22542E+02</wgt>
<wgt id='14008'>0.22539E+02</wgt>
<wgt id='14009'>0.22535E+02</wgt>
<wgt id='14010'>0.22532E+02</wgt>
<wgt id='14011'>0.22529E+02</wgt>
<wgt id='14012'>0.22526E+02</wgt>
<wgt id='14013'>0.22522E+02</wgt>
<wgt id='14014'>0.22519E+02</wgt>
<wgt id='14015'>0.22516E+02</wgt>
<wgt id='14016'>0.22513E+02</wgt>
<wgt id='14017'>0.22509E+02</wgt>
<wgt id='14018'>0.22506E+02</wgt>
<wgt id='14019'>0.22503E+02</wgt>
<wgt id='14020'>0.22500E+02</wgt>
<wgt id='14021'>0.22497E+02</wgt>
<wgt id='14022'>0.22493E+02</wgt>
<wgt id='14023'>0.22490E+02</wgt>
<wgt id='14024'>0.22487E+02</wgt>
<wgt id='14025'>0.22484E+02</wgt>
<wgt id='14026'>0.22480E+02</wgt>
<wgt id='14027'>0.22477E+02</wgt>
<wgt id='14028'>0.22474E+02</wgt>
<wgt id='14029'>0.22471E+02</wgt>
<wgt id='14030'>0.22467E+02</wgt>
<wgt id='15000'>0.21263E+02</wgt>
<wgt id='15001'>0.21291E+02</wgt>
<wgt id='15002'>0.21241E+02</wgt>
<wgt id='15003'>0.21280E+02</wgt>
<wgt id='15004'>0.21309E+02</wgt>
<wgt id='15005'>0.21247E+02</wgt>
<wgt id='15006'>0.21386E+02</wgt>
<wgt id='15007'>0.21409E+02</wgt>
<wgt id='15008'>0.21321E+02</wgt>
<wgt id='15009'>0.21249E+02</wgt>
<wgt id='15010'>0.21240E+02</wgt>
<wgt id='15011'>0.21339E+02</wgt>
<wgt id='15012'>0.21238E+02</wgt>
<wgt id='15013'>0.21280E+02</wgt>
<wgt id='15014'>0.21281E+02</wgt>
<wgt id='15015'>0.21194E+02</wgt>
<wgt id='15016'>0.21364E+02</wgt>
<wgt id='15017'>0.21135E+02</wgt>
<wgt id='15018'>0.21302E+02</wgt>
<wgt id='15019'>0.21312E+02</wgt>
<wgt id='15020'>0.21469E+02</wgt>
<wgt id='15021'>0.21246E+02</wgt>
<wgt id='15022'>0.21301E+02</wgt>
<wgt id='15023'>0.21144E+02</wgt>
<wgt id='15024'>0.21181E+02</wgt>
<wgt id='15025'>0.21361E+02</wgt>
<wgt id='15026'>0.21261E+02</wgt>
<wgt id='15027'>0.21237E+02</wgt>
<wgt id='15028'>0.21300E+02</wgt>
<wgt id='15029'>0.21268E+02</wgt>
<wgt id='15030'>0.21260E+02</wgt>
<wgt id='15031'>0.21258E+02</wgt>
<wgt id='15032'>0.21287E+02</wgt>
<wgt id='15033'>0.21296E+02</wgt>
<wgt id='15034'>0.21257E+02</wgt>
<wgt id='15035'>0.21293E+02</wgt>
<wgt id='15036'>0.21268E+02</wgt>
<wgt id='15037'>0.21287E+02</wgt>
<wgt id='15038'>0.21277E+02</wgt>
<wgt id='15039'>0.21276E+02</wgt>
<wgt id='15040'>0.21235E+02</wgt>
<wgt id='15041'>0.21259E+02</wgt>
<wgt id='15042'>0.21277E+02</wgt>
<wgt id='15043'>0.21244E+02</wgt>
<wgt id='15044'>0.21271E+02</wgt>
<wgt id='15045'>0.21273E+02</wgt>
<wgt id='15046'>0.21236E+02</wgt>
<wgt id='15047'>0.21260E+02</wgt>
<wgt id='15048'>0.21275E+02</wgt>
<wgt id='15049'>0.21250E+02</wgt>
<wgt id='15050'>0.21265E+02</wgt>
<wgt id='15051'>0.21277E+02</wgt>
<wgt id='15052'>0.21277E+02</wgt>
<wgt id='15053'>0.21265E+02</wgt>
<wgt id='15054'>0.21249E+02</wgt>
<wgt id='15055'>0.21251E+02</wgt>
<wgt id='15056'>0.21276E+02</wgt>
<wgt id='15057'>0.21259E+02</wgt>
<wgt id='15058'>0.21247E+02</wgt>
<wgt id='15059'>0.21252E+02</wgt>
<wgt id='15060'>0.21254E+02</wgt>
<wgt id='15061'>0.21264E+02</wgt>
<wgt id='15062'>0.21266E+02</wgt>
<wgt id='15063'>0.21271E+02</wgt>
<wgt id='15064'>0.21263E+02</wgt>
<wgt id='15065'>0.21261E+02</wgt>
<wgt id='15066'>0.21262E+02</wgt>
<wgt id='15067'>0.21270E+02</wgt>
<wgt id='15068'>0.21267E+02</wgt>
<wgt id='15069'>0.21278E+02</wgt>
<wgt id='15070'>0.21259E+02</wgt>
<wgt id='15071'>0.21277E+02</wgt>
<wgt id='15072'>0.21277E+02</wgt>
<wgt id='15073'>0.21257E+02</wgt>
<wgt id='15074'>0.21265E+02</wgt>
<wgt id='15075'>0.21259E+02</wgt>
<wgt id='15076'>0.21262E+02</wgt>
<wgt id='15077'>0.21268E+02</wgt>
<wgt id='15078'>0.21266E+02</wgt>
<wgt id='15079'>0.21259E+02</wgt>
<wgt id='15080'>0.21280E+02</wgt>
<wgt id='15081'>0.21262E+02</wgt>
<wgt id='15082'>0.21268E+02</wgt>
<wgt id='15083'>0.21256E+02</wgt>
<wgt id='15084'>0.21255E+02</wgt>
<wgt id='15085'>0.21256E+02</wgt>
<wgt id='15086'>0.21267E+02</wgt>
<wgt id='15087'>0.21246E+02</wgt>
<wgt id='15088'>0.21256E+02</wgt>
<wgt id='15089'>0.21257E+02</wgt>
<wgt id='15090'>0.21267E+02</wgt>
<wgt id='15091'>0.21260E+02</wgt>
<wgt id='15092'>0.21262E+02</wgt>
<wgt id='15093'>0.21258E+02</wgt>
<wgt id='15094'>0.21260E+02</wgt>
<wgt id='15095'>0.21265E+02</wgt>
<wgt id='15096'>0.21258E+02</wgt>
<wgt id='15097'>0.21265E+02</wgt>
<wgt id='15098'>0.21262E+02</wgt>
<wgt id='15099'>0.21258E+02</wgt>
<wgt id='15100'>0.21262E+02</wgt>
<wgt id='15101'>0.21263E+02</wgt>
<wgt id='15102'>0.21261E+02</wgt>
<wgt id='15103'>0.21263E+02</wgt>
<wgt id='15104'>0.21263E+02</wgt>
<wgt id='15105'>0.21264E+02</wgt>
<wgt id='15106'>0.21263E+02</wgt>
<wgt id='15107'>0.21262E+02</wgt>
<wgt id='1500'>0.22906E+02</wgt>
<wgt id='1501'>0.22020E+02</wgt>
<wgt id='1502'>0.23000E+02</wgt>
<wgt id='1503'>0.23674E+02</wgt>
<wgt id='1504'>0.22168E+02</wgt>
<wgt id='1505'>0.22075E+02</wgt>
<wgt id='1506'>0.23038E+02</wgt>
<wgt id='1507'>0.22871E+02</wgt>
<wgt id='1508'>0.22860E+02</wgt>
<wgt id='1509'>0.23312E+02</wgt>
<wgt id='1510'>0.23250E+02</wgt>
<wgt id='1511'>0.22637E+02</wgt>
<wgt id='1512'>0.23020E+02</wgt>
<wgt id='1513'>0.22337E+02</wgt>
<wgt id='1514'>0.23499E+02</wgt>
<wgt id='1515'>0.23301E+02</wgt>
<wgt id='1516'>0.23082E+02</wgt>
<wgt id='1517'>0.23246E+02</wgt>
<wgt id='1518'>0.22944E+02</wgt>
<wgt id='1519'>0.22836E+02</wgt>
<wgt id='1520'>0.23543E+02</wgt>
<wgt id='1521'>0.23047E+02</wgt>
<wgt id='1522'>0.22947E+02</wgt>
<wgt id='1523'>0.23449E+02</wgt>
<wgt id='1524'>0.23111E+02</wgt>
<wgt id='1525'>0.22718E+02</wgt>
<wgt id='1526'>0.22727E+02</wgt>
<wgt id='1527'>0.22902E+02</wgt>
<wgt id='1528'>0.23048E+02</wgt>
<wgt id='1529'>0.23437E+02</wgt>
<wgt id='1530'>0.23429E+02</wgt>
<wgt id='1531'>0.22814E+02</wgt>
<wgt id='1532'>0.22671E+02</wgt>
<wgt id='1533'>0.22477E+02</wgt>
<wgt id='1534'>0.23043E+02</wgt>
<wgt id='1535'>0.23552E+02</wgt>
<wgt id='1536'>0.22496E+02</wgt>
<wgt id='1537'>0.23270E+02</wgt>
<wgt id='1538'>0.22542E+02</wgt>
<wgt id='1539'>0.22413E+02</wgt>
<wgt id='1540'>0.22678E+02</wgt>
<wgt id='1541'>0.22671E+02</wgt>
<wgt id='1542'>0.22753E+02</wgt>
<wgt id='1543'>0.22731E+02</wgt>
<wgt id='1544'>0.23238E+02</wgt>
<wgt id='1545'>0.23365E+02</wgt>
<wgt id='1546'>0.23006E+02</wgt>
<wgt id='1547'>0.22686E+02</wgt>
<wgt id='1548'>0.22789E+02</wgt>
<wgt id='1549'>0.22878E+02</wgt>
<wgt id='1550'>0.22742E+02</wgt>
<wgt id='1551'>0.22858E+02</wgt>
<wgt id='1552'>0.22869E+02</wgt>
<wgt id='1553'>0.23399E+02</wgt>
<wgt id='1554'>0.22285E+02</wgt>
<wgt id='1555'>0.22602E+02</wgt>
<wgt id='1556'>0.23091E+02</wgt>
<wgt id='1557'>0.22467E+02</wgt>
<wgt id='1558'>0.22830E+02</wgt>
<wgt id='1559'>0.23639E+02</wgt>
<wgt id='1560'>0.22717E+02</wgt>
<wgt id='1561'>0.22707E+02</wgt>
<wgt id='1562'>0.23419E+02</wgt>
<wgt id='1563'>0.22532E+02</wgt>
<wgt id='1564'>0.23046E+02</wgt>
<wgt id='1565'>0.22700E+02</wgt>
<wgt id='1566'>0.23093E+02</wgt>
<wgt id='1567'>0.23866E+02</wgt>
<wgt id='1568'>0.22877E+02</wgt>
<wgt id='1569'>0.22312E+02</wgt>
<wgt id='1570'>0.22556E+02</wgt>
<wgt id='1571'>0.22580E+02</wgt>
<wgt id='1572'>0.23059E+02</wgt>
<wgt id='1573'>0.22120E+02</wgt>
<wgt id='1574'>0.23569E+02</wgt>
<wgt id='1575'>0.22677E+02</wgt>
<wgt id='1576'>0.22876E+02</wgt>
<wgt id='1577'>0.22797E+02</wgt>
<wgt id='1578'>0.22918E+02</wgt>
<wgt id='1579'>0.22580E+02</wgt>
<wgt id='1580'>0.22614E+02</wgt>
<wgt id='1581'>0.23095E+02</wgt>
<wgt id='1582'>0.22453E+02</wgt>
<wgt id='1583'>0.23394E+02</wgt>
<wgt id='1584'>0.22828E+02</wgt>
<wgt id='1585'>0.23026E+02</wgt>
<wgt id='1586'>0.22864E+02</wgt>
<wgt id='1587'>0.23417E+02</wgt>
<wgt id='1588'>0.22793E+02</wgt>
<wgt id='1589'>0.23172E+02</wgt>
<wgt id='1590'>0.22787E+02</wgt>
<wgt id='1591'>0.22513E+02</wgt>
<wgt id='1592'>0.22503E+02</wgt>
<wgt id='1593'>0.22924E+02</wgt>
<wgt id='1594'>0.23647E+02</wgt>
<wgt id='1595'>0.23141E+02</wgt>
<wgt id='1596'>0.22838E+02</wgt>
<wgt id='1597'>0.22726E+02</wgt>
<wgt id='1598'>0.22748E+02</wgt>
<wgt id='1599'>0.22794E+02</wgt>
<wgt id='1600'>0.22840E+02</wgt>
<wgt id='1601'>0.22530E+02</wgt>
<wgt id='1602'>0.23107E+02</wgt>
<wgt id='1700'>0.21667E+02</wgt>
<wgt id='1800'>0.26451E+02</wgt>
<wgt id='1850'>0.32027E+02</wgt>
<wgt id='1900'>0.28499E+02</wgt>
<wgt id='1950'>0.32107E+02</wgt>
</rwgt>
</event>
<event>
      4   9999  2.16956E+01  6.94802E+01 -1.00000E+00  1.29596E-01
      21    -1     0     0   502   511  0.000000000E+00  0.000000000E+00  9.541841616E+01  9.541841616E+01  0.000000000E+00  0.00000E+00  9.000E+00
      21    -1     0     0   501   502  0.000000000E+00  0.000000000E+00 -1.923273141E+02  1.923273141E+02  0.000000000E+00  0.00000E+00  9.000E+00
      25     1     1     2     0     0 -4.009431013E+01  5.674456691E+01 -1.446750881E+02  2.034302009E+02  1.250018637E+02  0.00000E+00  9.000E+00
      21     1     1     2   501   511  4.009431013E+01 -5.674456691E+01  4.776619014E+01  8.431552940E+01  6.743495762E-07  0.00000E+00  9.000E+00
#rwgt            1           1   16.894311723595102                1        7705           0
<rwgt>
<wgt id='1001'>0.21696E+02</wgt>
<wgt id='1002'>0.22935E+02</wgt>
<wgt id='1003'>0.20272E+02</wgt>
<wgt id='1004'>0.19056E+02</wgt>
<wgt id='1005'>0.20109E+02</wgt>
<wgt id='1006'>0.17817E+02</wgt>
<wgt id='1007'>0.24783E+02</wgt>
<wgt id='1008'>0.26266E+02</wgt>
<wgt id='1009'>0.23138E+02</wgt>
<wgt id='2000'>0.21696E+02</wgt>
<wgt id='2001'>0.21665E+02</wgt>
<wgt id='2002'>0.21780E+02</wgt>
<wgt id='2003'>0.21765E+02</wgt>
<wgt id='2004'>0.21712E+02</wgt>
<wgt id='2005'>0.21654E+02</wgt>
<wgt id='2006'>0.21648E+02</wgt>
<wgt id='2007'>0.21623E+02</wgt>
<wgt id='2008'>0.21677E+02</wgt>
<wgt id='2009'>0.21707E+02</wgt>
<wgt id='2010'>0.21678E+02</wgt>
<wgt id='2011'>0.21786E+02</wgt>
<wgt id='2012'>0.21798E+02</wgt>
<wgt id='2013'>0.21846E+02</wgt>
<wgt id='2014'>0.21768E+02</wgt>
<wgt id='2015'>0.21744E+02</wgt>
<wgt id='2016'>0.21669E+02</wgt>
<wgt id='2017'>0.21694E+02</wgt>
<wgt id='2018'>0.21764E+02</wgt>
<wgt id='2019'>0.21685E+02</wgt>
<wgt id='2020'>0.21770E+02</wgt>
<wgt id='2021'>0.21658E+02</wgt>
<wgt id='2022'>0.21747E+02</wgt>
<wgt id='2023'>0.21729E+02</wgt>
<wgt id='2024'>0.21706E+02</wgt>
<wgt id='2025'>0.21745E+02</wgt>
<wgt id='2026'>0.21720E+02</wgt>
<wgt id='2027'>0.21679E+02</wgt>
<wgt id='2028'>0.21680E+02</wgt>
<wgt id='2029'>0.21711E+02</wgt>
<wgt id='2030'>0.21708E+02</wgt>
<wgt id='2031'>0.21697E+02</wgt>
<wgt id='2032'>0.21707E+02</wgt>
<wgt id='2033'>0.21703E+02</wgt>
<wgt id='2034'>0.21690E+02</wgt>
<wgt id='2035'>0.21693E+02</wgt>
<wgt id='2036'>0.21685E+02</wgt>
<wgt id='2037'>0.21699E+02</wgt>
<wgt id='2038'>0.21694E+02</wgt>
<wgt id='2039'>0.21693E+02</wgt>
<wgt id='2040'>0.21681E+02</wgt>
<wgt id='2041'>0.21680E+02</wgt>
<wgt id='2042'>0.21687E+02</wgt>
<wgt id='2043'>0.21692E+02</wgt>
<wgt id='2044'>0.21702E+02</wgt>
<wgt id='2045'>0.21693E+02</wgt>
<wgt id='2046'>0.21711E+02</wgt>
<wgt id='2047'>0.21698E+02</wgt>
<wgt id='2048'>0.21692E+02</wgt>
<wgt id='2049'>0.21695E+02</wgt>
<wgt id='2050'>0.21705E+02</wgt>
<wgt id='2051'>0.21698E+02</wgt>
<wgt id='2052'>0.21691E+02</wgt>
<wgt id='2053'>0.21700E+02</wgt>
<wgt id='2054'>0.21703E+02</wgt>
<wgt id='2055'>0.21694E+02</wgt>
<wgt id='2056'>0.21697E+02</wgt>
<wgt id='2057'>0.21697E+02</wgt>
<wgt id='2058'>0.21696E+02</wgt>
<wgt id='2059'>0.21691E+02</wgt>
<wgt id='2060'>0.21694E+02</wgt>
<wgt id='2061'>0.21694E+02</wgt>
<wgt id='2062'>0.21700E+02</wgt>
<wgt id='2063'>0.21692E+02</wgt>
<wgt id='2064'>0.21695E+02</wgt>
<wgt id='2065'>0.21703E+02</wgt>
<wgt id='2066'>0.21697E+02</wgt>
<wgt id='2067'>0.21696E+02</wgt>
<wgt id='2068'>0.21699E+02</wgt>
<wgt id='2069'>0.21693E+02</wgt>
<wgt id='2070'>0.21692E+02</wgt>
<wgt id='2071'>0.21689E+02</wgt>
<wgt id='2072'>0.21696E+02</wgt>
<wgt id='2073'>0.21698E+02</wgt>
<wgt id='2074'>0.21691E+02</wgt>
<wgt id='2075'>0.21695E+02</wgt>
<wgt id='2076'>0.21694E+02</wgt>
<wgt id='2077'>0.21694E+02</wgt>
<wgt id='2078'>0.21695E+02</wgt>
<wgt id='2079'>0.21697E+02</wgt>
<wgt id='2080'>0.21697E+02</wgt>
<wgt id='2081'>0.21696E+02</wgt>
<wgt id='2082'>0.21696E+02</wgt>
<wgt id='2083'>0.21698E+02</wgt>
<wgt id='2084'>0.21696E+02</wgt>
<wgt id='2085'>0.21696E+02</wgt>
<wgt id='2086'>0.21695E+02</wgt>
<wgt id='2087'>0.21695E+02</wgt>
<wgt id='2088'>0.21696E+02</wgt>
<wgt id='2089'>0.21695E+02</wgt>
<wgt id='2090'>0.21695E+02</wgt>
<wgt id='2091'>0.21697E+02</wgt>
<wgt id='2092'>0.21697E+02</wgt>
<wgt id='2093'>0.21695E+02</wgt>
<wgt id='2094'>0.21697E+02</wgt>
<wgt id='2095'>0.21697E+02</wgt>
<wgt id='2096'>0.21694E+02</wgt>
<wgt id='2097'>0.21696E+02</wgt>
<wgt id='2098'>0.21695E+02</wgt>
<wgt id='2099'>0.21695E+02</wgt>
<wgt id='2100'>0.21696E+02</wgt>
<wgt id='2101'>0.21179E+02</wgt>
<wgt id='2102'>0.22142E+02</wgt>
<wgt id='2104'>0.19345E+02</wgt>
<wgt id='2105'>0.19766E+02</wgt>
<wgt id='2106'>0.20247E+02</wgt>
<wgt id='2107'>0.20756E+02</wgt>
<wgt id='2108'>0.21491E+02</wgt>
<wgt id='2109'>0.21973E+02</wgt>
<wgt id='2110'>0.22574E+02</wgt>
<wgt id='2111'>0.23040E+02</wgt>
<wgt id='3000'>0.22614E+02</wgt>
<wgt id='3001'>0.22691E+02</wgt>
<wgt id='3002'>0.22528E+02</wgt>
<wgt id='3003'>0.22690E+02</wgt>
<wgt id='3004'>0.22658E+02</wgt>
<wgt id='3005'>0.22705E+02</wgt>
<wgt id='3006'>0.22641E+02</wgt>
<wgt id='3007'>0.22649E+02</wgt>
<wgt id='3008'>0.22558E+02</wgt>
<wgt id='3009'>0.22577E+02</wgt>
<wgt id='3010'>0.22541E+02</wgt>
<wgt id='3011'>0.22661E+02</wgt>
<wgt id='3012'>0.22758E+02</wgt>
<wgt id='3013'>0.22465E+02</wgt>
<wgt id='3014'>0.22689E+02</wgt>
<wgt id='3015'>0.22670E+02</wgt>
<wgt id='3016'>0.22629E+02</wgt>
<wgt id='3017'>0.22696E+02</wgt>
<wgt id='3018'>0.22653E+02</wgt>
<wgt id='3019'>0.22535E+02</wgt>
<wgt id='3020'>0.22571E+02</wgt>
<wgt id='3021'>0.22545E+02</wgt>
<wgt id='3022'>0.22609E+02</wgt>
<wgt id='3023'>0.22575E+02</wgt>
<wgt id='3024'>0.22582E+02</wgt>
<wgt id='3025'>0.22612E+02</wgt>
<wgt id='3026'>0.22639E+02</wgt>
<wgt id='3027'>0.22620E+02</wgt>
<wgt id='3028'>0.22575E+02</wgt>
<wgt id='3029'>0.22618E+02</wgt>
<wgt id='3030'>0.22630E+02</wgt>
<wgt id='3031'>0.22620E+02</wgt>
<wgt id='3032'>0.22617E+02</wgt>
<wgt id='3033'>0.22614E+02</wgt>
<wgt id='3034'>0.22623E+02</wgt>
<wgt id='3035'>0.22622E+02</wgt>
<wgt id='3036'>0.22618E+02</wgt>
<wgt id='3037'>0.22611E+02</wgt>
<wgt id='3038'>0.22613E+02</wgt>
<wgt id='3039'>0.22636E+02</wgt>
<wgt id='3040'>0.22605E+02</wgt>
<wgt id='3041'>0.22605E+02</wgt>
<wgt id='3042'>0.22606E+02</wgt>
<wgt id='3043'>0.22602E+02</wgt>
<wgt id='3044'>0.22627E+02</wgt>
<wgt id='3045'>0.22622E+02</wgt>
<wgt id='3046'>0.22616E+02</wgt>
<wgt id='3047'>0.22613E+02</wgt>
<wgt id='3048'>0.22614E+02</wgt>
<wgt id='3049'>0.22608E+02</wgt>
<wgt id='3050'>0.22607E+02</wgt>
<wgt id='3051'>0.22625E+02</wgt>
<wgt id='3052'>0.22612E+02</wgt>
<wgt id='3053'>0.22613E+02</wgt>
<wgt id='3054'>0.22614E+02</wgt>
<wgt id='3055'>0.22616E+02</wgt>
<wgt id='3056'>0.22619E+02</wgt>
<wgt id='3057'>0.22618E+02</wgt>
<wgt id='3058'>0.22607E+02</wgt>
<wgt id='3059'>0.22618E+02</wgt>
<wgt id='3060'>0.22617E+02</wgt>
<wgt id='3061'>0.22624E+02</wgt>
<wgt id='3062'>0.22620E+02</wgt>
<wgt id='3063'>0.22616E+02</wgt>
<wgt id='3064'>0.22613E+02</wgt>
<wgt id='3065'>0.22611E+02</wgt>
<wgt id='3066'>0.22618E+02</wgt>
<wgt id='3067'>0.22606E+02</wgt>
<wgt id='3068'>0.22617E+02</wgt>
<wgt id='3069'>0.22612E+02</wgt>
<wgt id='3070'>0.22612E+02</wgt>
<wgt id='3071'>0.22611E+02</wgt>
<wgt id='3072'>0.22616E+02</wgt>
<wgt id='3073'>0.22610E+02</wgt>
<wgt id='3074'>0.22617E+02</wgt>
<wgt id='3075'>0.22613E+02</wgt>
<wgt id='3076'>0.22614E+02</wgt>
<wgt id='3077'>0.22616E+02</wgt>
<wgt id='3078'>0.22616E+02</wgt>
<wgt id='3079'>0.22616E+02</wgt>
<wgt id='3080'>0.22613E+02</wgt>
<wgt id='3081'>0.22615E+02</wgt>
<wgt id='3082'>0.22613E+02</wgt>
<wgt id='3083'>0.22613E+02</wgt>
<wgt id='3084'>0.22612E+02</wgt>
<wgt id='3085'>0.22613E+02</wgt>
<wgt id='3086'>0.22611E+02</wgt>
<wgt id='3087'>0.22612E+02</wgt>
<wgt id='3088'>0.22615E+02</wgt>
<wgt id='3089'>0.22614E+02</wgt>
<wgt id='3090'>0.22615E+02</wgt>
<wgt id='3091'>0.22616E+02</wgt>
<wgt id='3092'>0.22616E+02</wgt>
<wgt id='3093'>0.22613E+02</wgt>
<wgt id='3094'>0.22616E+02</wgt>
<wgt id='3095'>0.22615E+02</wgt>
<wgt id='3096'>0.22615E+02</wgt>
<wgt id='3097'>0.22613E+02</wgt>
<wgt id='3098'>0.22615E+02</wgt>
<wgt id='3099'>0.22615E+02</wgt>
<wgt id='3100'>0.22614E+02</wgt>
<wgt id='3101'>0.22096E+02</wgt>
<wgt id='3102'>0.23208E+02</wgt>
<wgt id='5000'>0.21058E+02</wgt>
<wgt id='5001'>0.20983E+02</wgt>
<wgt id='5002'>0.21023E+02</wgt>
<wgt id='5003'>0.20933E+02</wgt>
<wgt id='5004'>0.21092E+02</wgt>
<wgt id='5005'>0.20617E+02</wgt>
<wgt id='5006'>0.21318E+02</wgt>
<wgt id='5007'>0.21142E+02</wgt>
<wgt id='5008'>0.20826E+02</wgt>
<wgt id='5009'>0.21294E+02</wgt>
<wgt id='5010'>0.20927E+02</wgt>
<wgt id='5011'>0.21024E+02</wgt>
<wgt id='5012'>0.21044E+02</wgt>
<wgt id='5013'>0.20640E+02</wgt>
<wgt id='5014'>0.21095E+02</wgt>
<wgt id='5015'>0.21212E+02</wgt>
<wgt id='5016'>0.20587E+02</wgt>
<wgt id='5017'>0.21082E+02</wgt>
<wgt id='5018'>0.21033E+02</wgt>
<wgt id='5019'>0.21001E+02</wgt>
<wgt id='5020'>0.21104E+02</wgt>
<wgt id='5021'>0.21129E+02</wgt>
<wgt id='5022'>0.21013E+02</wgt>
<wgt id='5023'>0.21002E+02</wgt>
<wgt id='5024'>0.21114E+02</wgt>
<wgt id='5025'>0.21036E+02</wgt>
<wgt id='5026'>0.21076E+02</wgt>
<wgt id='5027'>0.21275E+02</wgt>
<wgt id='5028'>0.20694E+02</wgt>
<wgt id='5029'>0.20661E+02</wgt>
<wgt id='5030'>0.21297E+02</wgt>
<wgt id='5031'>0.20823E+02</wgt>
<wgt id='5032'>0.21398E+02</wgt>
<wgt id='5033'>0.20909E+02</wgt>
<wgt id='5034'>0.21184E+02</wgt>
<wgt id='5035'>0.20765E+02</wgt>
<wgt id='5036'>0.21296E+02</wgt>
<wgt id='5037'>0.21000E+02</wgt>
<wgt id='5038'>0.21112E+02</wgt>
<wgt id='5039'>0.21419E+02</wgt>
<wgt id='5040'>0.20873E+02</wgt>
<wgt id='5041'>0.20846E+02</wgt>
<wgt id='5042'>0.21088E+02</wgt>
<wgt id='5043'>0.21254E+02</wgt>
<wgt id='5044'>0.20522E+02</wgt>
<wgt id='5045'>0.21688E+02</wgt>
<wgt id='5046'>0.20857E+02</wgt>
<wgt id='5047'>0.21219E+02</wgt>
<wgt id='5048'>0.21139E+02</wgt>
<wgt id='5049'>0.21077E+02</wgt>
<wgt id='5050'>0.21094E+02</wgt>
<wgt id='5051'>0.21113E+02</wgt>
<wgt id='5052'>0.21045E+02</wgt>
<wgt id='5053'>0.20897E+02</wgt>
<wgt id='5054'>0.21476E+02</wgt>
<wgt id='5055'>0.20926E+02</wgt>
<wgt id='5056'>0.21198E+02</wgt>
<wgt id='5060'>0.20584E+02</wgt>
<wgt id='5070'>0.21469E+02</wgt>
<wgt id='4000'>0.22135E+02</wgt>
<wgt id='4001'>0.22157E+02</wgt>
<wgt id='4002'>0.22198E+02</wgt>
<wgt id='4003'>0.22586E+02</wgt>
<wgt id='4004'>0.21919E+02</wgt>
<wgt id='4005'>0.22205E+02</wgt>
<wgt id='4006'>0.22078E+02</wgt>
<wgt id='4007'>0.22384E+02</wgt>
<wgt id='4008'>0.22021E+02</wgt>
<wgt id='4009'>0.21694E+02</wgt>
<wgt id='4010'>0.22444E+02</wgt>
<wgt id='4011'>0.22481E+02</wgt>
<wgt id='4012'>0.21935E+02</wgt>
<wgt id='4013'>0.21339E+02</wgt>
<wgt id='4014'>0.22590E+02</wgt>
<wgt id='4015'>0.22347E+02</wgt>
<wgt id='4016'>0.21995E+02</wgt>
<wgt id='4017'>0.21910E+02</wgt>
<wgt id='4018'>0.22402E+02</wgt>
<wgt id='4019'>0.22419E+02</wgt>
<wgt id='4020'>0.21817E+02</wgt>
<wgt id='4021'>0.22190E+02</wgt>
<wgt id='4022'>0.22015E+02</wgt>
<wgt id='4023'>0.22024E+02</wgt>
<wgt id='4024'>0.22233E+02</wgt>
<wgt id='4025'>0.21864E+02</wgt>
<wgt id='4026'>0.22381E+02</wgt>
<wgt id='4027'>0.22061E+02</wgt>
<wgt id='4028'>0.22234E+02</wgt>
<wgt id='4029'>0.21972E+02</wgt>
<wgt id='4030'>0.22191E+02</wgt>
<wgt id='4031'>0.22171E+02</wgt>
<wgt id='4032'>0.22088E+02</wgt>
<wgt id='4033'>0.22111E+02</wgt>
<wgt id='4034'>0.22182E+02</wgt>
<wgt id='4035'>0.22442E+02</wgt>
<wgt id='4036'>0.21840E+02</wgt>
<wgt id='4037'>0.22309E+02</wgt>
<wgt id='4038'>0.21842E+02</wgt>
<wgt id='4039'>0.22122E+02</wgt>
<wgt id='4040'>0.22106E+02</wgt>
<wgt id='4041'>0.22311E+02</wgt>
<wgt id='4042'>0.21972E+02</wgt>
<wgt id='4043'>0.22328E+02</wgt>
<wgt id='4044'>0.21937E+02</wgt>
<wgt id='4045'>0.21851E+02</wgt>
<wgt id='4046'>0.22054E+02</wgt>
<wgt id='4047'>0.21874E+02</wgt>
<wgt id='4048'>0.22300E+02</wgt>
<wgt id='4049'>0.22172E+02</wgt>
<wgt id='4050'>0.21749E+02</wgt>
<wgt id='4051'>0.22089E+02</wgt>
<wgt id='4052'>0.22084E+02</wgt>
<wgt id='4053'>0.21558E+02</wgt>
<wgt id='4054'>0.22271E+02</wgt>
<wgt id='4055'>0.21964E+02</wgt>
<wgt id='4056'>0.22313E+02</wgt>
<wgt id='4060'>0.21563E+02</wgt>
<wgt id='4070'>0.22661E+02</wgt>
<wgt id='4080'>0.21821E+02</wgt>
<wgt id='6000'>0.22554E+02</wgt>
<wgt id='6001'>0.22565E+02</wgt>
<wgt id='6002'>0.22542E+02</wgt>
<wgt id='6003'>0.22565E+02</wgt>
<wgt id='6004'>0.22547E+02</wgt>
<wgt id='6005'>0.22613E+02</wgt>
<wgt id='6006'>0.22498E+02</wgt>
<wgt id='6007'>0.22459E+02</wgt>
<wgt id='6008'>0.22661E+02</wgt>
<wgt id='6009'>0.22625E+02</wgt>
<wgt id='6010'>0.22484E+02</wgt>
<wgt id='6011'>0.22601E+02</wgt>
<wgt id='6012'>0.22451E+02</wgt>
<wgt id='6013'>0.22529E+02</wgt>
<wgt id='6014'>0.22597E+02</wgt>
<wgt id='6015'>0.22484E+02</wgt>
<wgt id='6016'>0.22593E+02</wgt>
<wgt id='6017'>0.22428E+02</wgt>
<wgt id='6018'>0.22703E+02</wgt>
<wgt id='6019'>0.22585E+02</wgt>
<wgt id='6020'>0.22526E+02</wgt>
<wgt id='6021'>0.22505E+02</wgt>
<wgt id='6022'>0.22620E+02</wgt>
<wgt id='6023'>0.22397E+02</wgt>
<wgt id='6024'>0.22663E+02</wgt>
<wgt id='6025'>0.22325E+02</wgt>
<wgt id='6026'>0.22742E+02</wgt>
<wgt id='6027'>0.22613E+02</wgt>
<wgt id='6028'>0.22554E+02</wgt>
<wgt id='6029'>0.22679E+02</wgt>
<wgt id='6030'>0.22410E+02</wgt>
<wgt id='6031'>0.22570E+02</wgt>
<wgt id='6032'>0.22528E+02</wgt>
<wgt id='6033'>0.22598E+02</wgt>
<wgt id='6034'>0.22507E+02</wgt>
<wgt id='6035'>0.22543E+02</wgt>
<wgt id='6036'>0.22619E+02</wgt>
<wgt id='6037'>0.22594E+02</wgt>
<wgt id='6038'>0.22549E+02</wgt>
<wgt id='6039'>0.22531E+02</wgt>
<wgt id='6040'>0.22578E+02</wgt>
<wgt id='6041'>0.22506E+02</wgt>
<wgt id='6042'>0.22612E+02</wgt>
<wgt id='6043'>0.22838E+02</wgt>
<wgt id='6044'>0.22416E+02</wgt>
<wgt id='6045'>0.22536E+02</wgt>
<wgt id='6046'>0.22599E+02</wgt>
<wgt id='6047'>0.22544E+02</wgt>
<wgt id='6048'>0.22382E+02</wgt>
<wgt id='6049'>0.22551E+02</wgt>
<wgt id='6050'>0.22543E+02</wgt>
<wgt id='7000'>0.21223E+02</wgt>
<wgt id='7001'>0.21217E+02</wgt>
<wgt id='7002'>0.21230E+02</wgt>
<wgt id='7003'>0.21288E+02</wgt>
<wgt id='7004'>0.21157E+02</wgt>
<wgt id='7005'>0.21264E+02</wgt>
<wgt id='7006'>0.21207E+02</wgt>
<wgt id='7007'>0.21139E+02</wgt>
<wgt id='7008'>0.21306E+02</wgt>
<wgt id='7009'>0.21258E+02</wgt>
<wgt id='7010'>0.21189E+02</wgt>
<wgt id='7011'>0.21024E+02</wgt>
<wgt id='7012'>0.21308E+02</wgt>
<wgt id='7013'>0.21223E+02</wgt>
<wgt id='7014'>0.21221E+02</wgt>
<wgt id='7015'>0.21163E+02</wgt>
<wgt id='7016'>0.21286E+02</wgt>
<wgt id='7017'>0.21165E+02</wgt>
<wgt id='7018'>0.21253E+02</wgt>
<wgt id='7019'>0.21196E+02</wgt>
<wgt id='7020'>0.21259E+02</wgt>
<wgt id='7021'>0.21215E+02</wgt>
<wgt id='7022'>0.21226E+02</wgt>
<wgt id='7023'>0.21445E+02</wgt>
<wgt id='7024'>0.21005E+02</wgt>
<wgt id='7025'>0.21311E+02</wgt>
<wgt id='7026'>0.21007E+02</wgt>
<wgt id='7027'>0.21312E+02</wgt>
<wgt id='7028'>0.21183E+02</wgt>
<wgt id='7029'>0.21136E+02</wgt>
<wgt id='7030'>0.21448E+02</wgt>
<wgt id='7031'>0.21216E+02</wgt>
<wgt id='7032'>0.21238E+02</wgt>
<wgt id='7033'>0.21197E+02</wgt>
<wgt id='7034'>0.21282E+02</wgt>
<wgt id='7035'>0.21267E+02</wgt>
<wgt id='7036'>0.21212E+02</wgt>
<wgt id='7037'>0.21230E+02</wgt>
<wgt id='7038'>0.21225E+02</wgt>
<wgt id='7039'>0.21200E+02</wgt>
<wgt id='7040'>0.21238E+02</wgt>
<wgt id='7041'>0.21182E+02</wgt>
<wgt id='7042'>0.21249E+02</wgt>
<wgt id='7043'>0.21241E+02</wgt>
<wgt id='7044'>0.21117E+02</wgt>
<wgt id='7045'>0.21043E+02</wgt>
<wgt id='7046'>0.21278E+02</wgt>
<wgt id='7047'>0.21243E+02</wgt>
<wgt id='7048'>0.21206E+02</wgt>
<wgt id='7049'>0.21193E+02</wgt>
<wgt id='7050'>0.21187E+02</wgt>
<wgt id='7060'>0.32117E+02</wgt>
<wgt id='8000'>0.21446E+02</wgt>
<wgt id='8001'>0.21441E+02</wgt>
<wgt id='8002'>0.21452E+02</wgt>
<wgt id='8003'>0.21448E+02</wgt>
<wgt id='8004'>0.21446E+02</wgt>
<wgt id='8005'>0.21395E+02</wgt>
<wgt id='8006'>0.21434E+02</wgt>
<wgt id='8007'>0.21421E+02</wgt>
<wgt id='8008'>0.21485E+02</wgt>
<wgt id='8009'>0.21526E+02</wgt>
<wgt id='8010'>0.21445E+02</wgt>
<wgt id='8011'>0.21435E+02</wgt>
<wgt id='8012'>0.21419E+02</wgt>
<wgt id='8013'>0.21441E+02</wgt>
<wgt id='8014'>0.21437E+02</wgt>
<wgt id='8015'>0.21430E+02</wgt>
<wgt id='8016'>0.21453E+02</wgt>
<wgt id='8017'>0.21449E+02</wgt>
<wgt id='8018'>0.21446E+02</wgt>
<wgt id='8019'>0.21483E+02</wgt>
<wgt id='8020'>0.21377E+02</wgt>
<wgt id='8021'>0.21448E+02</wgt>
<wgt id='8022'>0.21320E+02</wgt>
<wgt id='8023'>0.21469E+02</wgt>
<wgt id='8024'>0.21488E+02</wgt>
<wgt id='8025'>0.21518E+02</wgt>
<wgt id='8026'>0.21490E+02</wgt>
<wgt id='8027'>0.21411E+02</wgt>
<wgt id='8028'>0.21467E+02</wgt>
<wgt id='8029'>0.21295E+02</wgt>
<wgt id='8500'>0.22281E+02</wgt>
<wgt id='8501'>0.22226E+02</wgt>
<wgt id='8502'>0.22474E+02</wgt>
<wgt id='8503'>0.22418E+02</wgt>
<wgt id='8504'>0.22230E+02</wgt>
<wgt id='8505'>0.22195E+02</wgt>
<wgt id='8506'>0.22233E+02</wgt>
<wgt id='8507'>0.22386E+02</wgt>
<wgt id='8508'>0.22535E+02</wgt>
<wgt id='8509'>0.22179E+02</wgt>
<wgt id='8510'>0.22602E+02</wgt>
<wgt id='8511'>0.22295E+02</wgt>
<wgt id='8512'>0.22038E+02</wgt>
<wgt id='8513'>0.22314E+02</wgt>
<wgt id='8514'>0.22142E+02</wgt>
<wgt id='8515'>0.22304E+02</wgt>
<wgt id='8516'>0.22337E+02</wgt>
<wgt id='8517'>0.22219E+02</wgt>
<wgt id='8518'>0.22226E+02</wgt>
<wgt id='8519'>0.22234E+02</wgt>
<wgt id='8520'>0.22293E+02</wgt>
<wgt id='8521'>0.22171E+02</wgt>
<wgt id='8522'>0.22298E+02</wgt>
<wgt id='8523'>0.22238E+02</wgt>
<wgt id='8524'>0.22270E+02</wgt>
<wgt id='8525'>0.22257E+02</wgt>
<wgt id='8526'>0.22259E+02</wgt>
<wgt id='8527'>0.22291E+02</wgt>
<wgt id='8528'>0.22224E+02</wgt>
<wgt id='8529'>0.22266E+02</wgt>
<wgt id='8530'>0.22270E+02</wgt>
<wgt id='8531'>0.22274E+02</wgt>
<wgt id='8532'>0.22282E+02</wgt>
<wgt id='8533'>0.22240E+02</wgt>
<wgt id='8534'>0.22290E+02</wgt>
<wgt id='8535'>0.22329E+02</wgt>
<wgt id='8536'>0.22263E+02</wgt>
<wgt id='8537'>0.22289E+02</wgt>
<wgt id='8538'>0.22261E+02</wgt>
<wgt id='8539'>0.22286E+02</wgt>
<wgt id='8540'>0.22283E+02</wgt>
<wgt id='8541'>0.22292E+02</wgt>
<wgt id='8542'>0.22298E+02</wgt>
<wgt id='8543'>0.22262E+02</wgt>
<wgt id='8544'>0.22302E+02</wgt>
<wgt id='8545'>0.22298E+02</wgt>
<wgt id='8546'>0.22302E+02</wgt>
<wgt id='8547'>0.22263E+02</wgt>
<wgt id='8548'>0.22259E+02</wgt>
<wgt id='8549'>0.22283E+02</wgt>
<wgt id='8550'>0.22283E+02</wgt>
<wgt id='8551'>0.22259E+02</wgt>
<wgt id='8552'>0.22284E+02</wgt>
<wgt id='8553'>0.22270E+02</wgt>
<wgt id='8554'>0.22271E+02</wgt>
<wgt id='8555'>0.22283E+02</wgt>
<wgt id='8556'>0.22279E+02</wgt>
<wgt id='8557'>0.22276E+02</wgt>
<wgt id='8558'>0.22305E+02</wgt>
<wgt id='8559'>0.22270E+02</wgt>
<wgt id='8560'>0.22257E+02</wgt>
<wgt id='8561'>0.22278E+02</wgt>
<wgt id='8562'>0.22264E+02</wgt>
<wgt id='8563'>0.22282E+02</wgt>
<wgt id='8564'>0.22276E+02</wgt>
<wgt id='8565'>0.22280E+02</wgt>
<wgt id='8566'>0.22277E+02</wgt>
<wgt id='8567'>0.22278E+02</wgt>
<wgt id='8568'>0.22289E+02</wgt>
<wgt id='8569'>0.22287E+02</wgt>
<wgt id='8570'>0.22279E+02</wgt>
<wgt id='8571'>0.22271E+02</wgt>
<wgt id='8572'>0.22274E+02</wgt>
<wgt id='8573'>0.22272E+02</wgt>
<wgt id='8574'>0.22285E+02</wgt>
<wgt id='8575'>0.22278E+02</wgt>
<wgt id='8576'>0.22279E+02</wgt>
<wgt id='8577'>0.22280E+02</wgt>
<wgt id='8578'>0.22283E+02</wgt>
<wgt id='8579'>0.22294E+02</wgt>
<wgt id='8580'>0.22281E+02</wgt>
<wgt id='8581'>0.22285E+02</wgt>
<wgt id='8582'>0.22267E+02</wgt>
<wgt id='8583'>0.22290E+02</wgt>
<wgt id='8584'>0.22286E+02</wgt>
<wgt id='8585'>0.22285E+02</wgt>
<wgt id='8586'>0.22291E+02</wgt>
<wgt id='8587'>0.22278E+02</wgt>
<wgt id='8588'>0.22276E+02</wgt>
<wgt id='8589'>0.22282E+02</wgt>
<wgt id='8590'>0.22279E+02</wgt>
<wgt id='8591'>0.22278E+02</wgt>
<wgt id='8592'>0.22280E+02</wgt>
<wgt id='8593'>0.22273E+02</wgt>
<wgt id='8594'>0.22284E+02</wgt>
<wgt id='8595'>0.22283E+02</wgt>
<wgt id='8596'>0.22276E+02</wgt>
<wgt id='8597'>0.22284E+02</wgt>
<wgt id='8598'>0.22286E+02</wgt>
<wgt id='8599'>0.22284E+02</wgt>
<wgt id='8600'>0.22281E+02</wgt>
<wgt id='8601'>0.21879E+02</wgt>
<wgt id='8602'>0.22629E+02</wgt>
<wgt id='9000'>0.21205E+02</wgt>
<wgt id='9001'>0.21230E+02</wgt>
<wgt id='9002'>0.21307E+02</wgt>
<wgt id='9003'>0.21035E+02</wgt>
<wgt id='9004'>0.21167E+02</wgt>
<wgt id='9005'>0.21292E+02</wgt>
<wgt id='9006'>0.21156E+02</wgt>
<wgt id='9007'>0.21220E+02</wgt>
<wgt id='9008'>0.21244E+02</wgt>
<wgt id='9009'>0.21189E+02</wgt>
<wgt id='9010'>0.21155E+02</wgt>
<wgt id='9011'>0.21434E+02</wgt>
<wgt id='9012'>0.20986E+02</wgt>
<wgt id='9013'>0.20922E+02</wgt>
<wgt id='9014'>0.20992E+02</wgt>
<wgt id='9015'>0.21195E+02</wgt>
<wgt id='9016'>0.21347E+02</wgt>
<wgt id='9017'>0.21201E+02</wgt>
<wgt id='9018'>0.21176E+02</wgt>
<wgt id='9019'>0.21172E+02</wgt>
<wgt id='9020'>0.21295E+02</wgt>
<wgt id='9021'>0.21167E+02</wgt>
<wgt id='9022'>0.21232E+02</wgt>
<wgt id='9023'>0.21172E+02</wgt>
<wgt id='9024'>0.21181E+02</wgt>
<wgt id='9025'>0.21233E+02</wgt>
<wgt id='9026'>0.21207E+02</wgt>
<wgt id='9027'>0.21167E+02</wgt>
<wgt id='9028'>0.21224E+02</wgt>
<wgt id='9029'>0.21227E+02</wgt>
<wgt id='9030'>0.21203E+02</wgt>
<wgt id='9031'>0.21200E+02</wgt>
<wgt id='9032'>0.21224E+02</wgt>
<wgt id='9033'>0.21232E+02</wgt>
<wgt id='9034'>0.21193E+02</wgt>
<wgt id='9035'>0.21238E+02</wgt>
<wgt id='9036'>0.21204E+02</wgt>
<wgt id='9037'>0.21225E+02</wgt>
<wgt id='9038'>0.21207E+02</wgt>
<wgt id='9039'>0.21208E+02</wgt>
<wgt id='9040'>0.21181E+02</wgt>
<wgt id='9041'>0.21196E+02</wgt>
<wgt id='9042'>0.21202E+02</wgt>
<wgt id='9043'>0.21189E+02</wgt>
<wgt id='9044'>0.21212E+02</wgt>
<wgt id='9045'>0.21203E+02</wgt>
<wgt id='9046'>0.21176E+02</wgt>
<wgt id='9047'>0.21195E+02</wgt>
<wgt id='9048'>0.21212E+02</wgt>
<wgt id='9049'>0.21193E+02</wgt>
<wgt id='9050'>0.21210E+02</wgt>
<wgt id='9051'>0.21213E+02</wgt>
<wgt id='9052'>0.21210E+02</wgt>
<wgt id='9053'>0.21207E+02</wgt>
<wgt id='9054'>0.21194E+02</wgt>
<wgt id='9055'>0.21200E+02</wgt>
<wgt id='9056'>0.21224E+02</wgt>
<wgt id='9057'>0.21203E+02</wgt>
<wgt id='9058'>0.21190E+02</wgt>
<wgt id='9059'>0.21196E+02</wgt>
<wgt id='9060'>0.21197E+02</wgt>
<wgt id='9061'>0.21208E+02</wgt>
<wgt id='9062'>0.21208E+02</wgt>
<wgt id='9063'>0.21214E+02</wgt>
<wgt id='9064'>0.21200E+02</wgt>
<wgt id='9065'>0.21204E+02</wgt>
<wgt id='9066'>0.21207E+02</wgt>
<wgt id='9067'>0.21212E+02</wgt>
<wgt id='9068'>0.21212E+02</wgt>
<wgt id='9069'>0.21216E+02</wgt>
<wgt id='9070'>0.21203E+02</wgt>
<wgt id='9071'>0.21217E+02</wgt>
<wgt id='9072'>0.21218E+02</wgt>
<wgt id='9073'>0.21199E+02</wgt>
<wgt id='9074'>0.21208E+02</wgt>
<wgt id='9075'>0.21203E+02</wgt>
<wgt id='9076'>0.21203E+02</wgt>
<wgt id='9077'>0.21208E+02</wgt>
<wgt id='9078'>0.21207E+02</wgt>
<wgt id='9079'>0.21201E+02</wgt>
<wgt id='9080'>0.21219E+02</wgt>
<wgt id='9081'>0.21202E+02</wgt>
<wgt id='9082'>0.21210E+02</wgt>
<wgt id='9083'>0.21198E+02</wgt>
<wgt id='9084'>0.21199E+02</wgt>
<wgt id='9085'>0.21199E+02</wgt>
<wgt id='9086'>0.21208E+02</wgt>
<wgt id='9087'>0.21192E+02</wgt>
<wgt id='9088'>0.21200E+02</wgt>
<wgt id='9089'>0.21200E+02</wgt>
<wgt id='9090'>0.21208E+02</wgt>
<wgt id='9091'>0.21203E+02</wgt>
<wgt id='9092'>0.21204E+02</wgt>
<wgt id='9093'>0.21201E+02</wgt>
<wgt id='9094'>0.21203E+02</wgt>
<wgt id='9095'>0.21207E+02</wgt>
<wgt id='9096'>0.21201E+02</wgt>
<wgt id='9097'>0.21206E+02</wgt>
<wgt id='9098'>0.21205E+02</wgt>
<wgt id='9099'>0.21200E+02</wgt>
<wgt id='9100'>0.21204E+02</wgt>
<wgt id='9101'>0.20902E+02</wgt>
<wgt id='9102'>0.21453E+02</wgt>
<wgt id='10000'>0.22279E+02</wgt>
<wgt id='10001'>0.22375E+02</wgt>
<wgt id='10002'>0.22260E+02</wgt>
<wgt id='10003'>0.22279E+02</wgt>
<wgt id='10004'>0.22310E+02</wgt>
<wgt id='10005'>0.22859E+02</wgt>
<wgt id='10006'>0.22266E+02</wgt>
<wgt id='10007'>0.22274E+02</wgt>
<wgt id='10008'>0.22287E+02</wgt>
<wgt id='10009'>0.22239E+02</wgt>
<wgt id='10010'>0.22288E+02</wgt>
<wgt id='10011'>0.22256E+02</wgt>
<wgt id='10012'>0.22245E+02</wgt>
<wgt id='10013'>0.22274E+02</wgt>
<wgt id='10014'>0.22281E+02</wgt>
<wgt id='10015'>0.22302E+02</wgt>
<wgt id='10016'>0.22280E+02</wgt>
<wgt id='10017'>0.22160E+02</wgt>
<wgt id='10018'>0.22298E+02</wgt>
<wgt id='10019'>0.22246E+02</wgt>
<wgt id='10020'>0.22281E+02</wgt>
<wgt id='10021'>0.22278E+02</wgt>
<wgt id='10022'>0.22271E+02</wgt>
<wgt id='10023'>0.22282E+02</wgt>
<wgt id='10024'>0.22274E+02</wgt>
<wgt id='10025'>0.22270E+02</wgt>
<wgt id='10026'>0.22290E+02</wgt>
<wgt id='10027'>0.22289E+02</wgt>
<wgt id='10028'>0.22354E+02</wgt>
<wgt id='10029'>0.22304E+02</wgt>
<wgt id='10030'>0.22273E+02</wgt>
<wgt id='10031'>0.21879E+02</wgt>
<wgt id='10032'>0.22629E+02</wgt>
<wgt id='11000'>0.21203E+02</wgt>
<wgt id='11001'>0.21174E+02</wgt>
<wgt id='11002'>0.21281E+02</wgt>
<wgt id='11003'>0.21181E+02</wgt>
<wgt id='11004'>0.21282E+02</wgt>
<wgt id='11005'>0.20935E+02</wgt>
<wgt id='11006'>0.21204E+02</wgt>
<wgt id='11007'>0.21155E+02</wgt>
<wgt id='11008'>0.21154E+02</wgt>
<wgt id='11009'>0.21109E+02</wgt>
<wgt id='11010'>0.21269E+02</wgt>
<wgt id='11011'>0.21097E+02</wgt>
<wgt id='11012'>0.21224E+02</wgt>
<wgt id='11013'>0.21276E+02</wgt>
<wgt id='11014'>0.21144E+02</wgt>
<wgt id='11015'>0.21179E+02</wgt>
<wgt id='11016'>0.21178E+02</wgt>
<wgt id='11017'>0.21371E+02</wgt>
<wgt id='11018'>0.21200E+02</wgt>
<wgt id='11019'>0.21195E+02</wgt>
<wgt id='11020'>0.21239E+02</wgt>
<wgt id='11021'>0.21265E+02</wgt>
<wgt id='11022'>0.21608E+02</wgt>
<wgt id='11023'>0.21200E+02</wgt>
<wgt id='11024'>0.21195E+02</wgt>
<wgt id='11025'>0.21166E+02</wgt>
<wgt id='11026'>0.21206E+02</wgt>
<wgt id='11027'>0.21198E+02</wgt>
<wgt id='11028'>0.21202E+02</wgt>
<wgt id='11029'>0.21196E+02</wgt>
<wgt id='11030'>0.21205E+02</wgt>
<wgt id='11031'>0.20902E+02</wgt>
<wgt id='11032'>0.21453E+02</wgt>
<wgt id='12000'>0.23555E+02</wgt>
<wgt id='12001'>0.23523E+02</wgt>
<wgt id='12002'>0.23586E+02</wgt>
<wgt id='12003'>0.23612E+02</wgt>
<wgt id='12004'>0.23497E+02</wgt>
<wgt id='12005'>0.23593E+02</wgt>
<wgt id='12006'>0.23517E+02</wgt>
<wgt id='12007'>0.23620E+02</wgt>
<wgt id='12008'>0.23492E+02</wgt>
<wgt id='12009'>0.23589E+02</wgt>
<wgt id='12010'>0.23522E+02</wgt>
<wgt id='12011'>0.23506E+02</wgt>
<wgt id='12012'>0.23607E+02</wgt>
<wgt id='12013'>0.23464E+02</wgt>
<wgt id='12014'>0.23647E+02</wgt>
<wgt id='12015'>0.23557E+02</wgt>
<wgt id='12016'>0.23527E+02</wgt>
<wgt id='12017'>0.23630E+02</wgt>
<wgt id='12018'>0.23472E+02</wgt>
<wgt id='12019'>0.23476E+02</wgt>
<wgt id='12020'>0.23630E+02</wgt>
<wgt id='12021'>0.23643E+02</wgt>
<wgt id='12022'>0.23441E+02</wgt>
<wgt id='12023'>0.23457E+02</wgt>
<wgt id='12024'>0.23538E+02</wgt>
<wgt id='12025'>0.23613E+02</wgt>
<wgt id='12026'>0.23530E+02</wgt>
<wgt id='12027'>0.23549E+02</wgt>
<wgt id='12028'>0.23581E+02</wgt>
<wgt id='12050'>0.23555E+02</wgt>
<wgt id='12051'>0.23540E+02</wgt>
<wgt id='12052'>0.23560E+02</wgt>
<wgt id='12053'>0.23535E+02</wgt>
<wgt id='12054'>0.23559E+02</wgt>
<wgt id='12055'>0.23629E+02</wgt>
<wgt id='12056'>0.23398E+02</wgt>
<wgt id='12057'>0.23466E+02</wgt>
<wgt id='12058'>0.23638E+02</wgt>
<wgt id='12059'>0.23507E+02</wgt>
<wgt id='12060'>0.23609E+02</wgt>
<wgt id='12061'>0.23552E+02</wgt>
<wgt id='12062'>0.23591E+02</wgt>
<wgt id='12063'>0.23326E+02</wgt>
<wgt id='13000'>0.21398E+02</wgt>
<wgt id='13001'>0.21381E+02</wgt>
<wgt id='13002'>0.21412E+02</wgt>
<wgt id='13003'>0.21425E+02</wgt>
<wgt id='13004'>0.21368E+02</wgt>
<wgt id='13005'>0.21448E+02</wgt>
<wgt id='13006'>0.21346E+02</wgt>
<wgt id='13007'>0.21489E+02</wgt>
<wgt id='13008'>0.21307E+02</wgt>
<wgt id='13009'>0.21395E+02</wgt>
<wgt id='13010'>0.21400E+02</wgt>
<wgt id='13011'>0.21451E+02</wgt>
<wgt id='13012'>0.21343E+02</wgt>
<wgt id='13013'>0.21335E+02</wgt>
<wgt id='13014'>0.21458E+02</wgt>
<wgt id='13015'>0.21366E+02</wgt>
<wgt id='13016'>0.21413E+02</wgt>
<wgt id='13017'>0.21384E+02</wgt>
<wgt id='13018'>0.21405E+02</wgt>
<wgt id='13019'>0.21360E+02</wgt>
<wgt id='13020'>0.21432E+02</wgt>
<wgt id='13021'>0.21234E+02</wgt>
<wgt id='13022'>0.21530E+02</wgt>
<wgt id='13023'>0.21399E+02</wgt>
<wgt id='13024'>0.21392E+02</wgt>
<wgt id='13025'>0.21331E+02</wgt>
<wgt id='13026'>0.21411E+02</wgt>
<wgt id='13027'>0.21398E+02</wgt>
<wgt id='13028'>0.21418E+02</wgt>
<wgt id='13050'>0.21398E+02</wgt>
<wgt id='13051'>0.21405E+02</wgt>
<wgt id='13052'>0.21344E+02</wgt>
<wgt id='13053'>0.21397E+02</wgt>
<wgt id='13054'>0.21387E+02</wgt>
<wgt id='13055'>0.21353E+02</wgt>
<wgt id='13056'>0.21398E+02</wgt>
<wgt id='13057'>0.21325E+02</wgt>
<wgt id='13058'>0.21508E+02</wgt>
<wgt id='13059'>0.21339E+02</wgt>
<wgt id='13060'>0.21422E+02</wgt>
<wgt id='13061'>0.21339E+02</wgt>
<wgt id='13062'>0.21560E+02</wgt>
<wgt id='13063'>0.21276E+02</wgt>
<wgt id='14000'>0.22044E+02</wgt>
<wgt id='14001'>0.22040E+02</wgt>
<wgt id='14002'>0.22037E+02</wgt>
<wgt id='14003'>0.22033E+02</wgt>
<wgt id='14004'>0.22030E+02</wgt>
<wgt id='14005'>0.22026E+02</wgt>
<wgt id='14006'>0.22023E+02</wgt>
<wgt id='14007'>0.22019E+02</wgt>
<wgt id='14008'>0.22016E+02</wgt>
<wgt id='14009'>0.22012E+02</wgt>
<wgt id='14010'>0.22009E+02</wgt>
<wgt id='14011'>0.22005E+02</wgt>
<wgt id='14012'>0.22002E+02</wgt>
<wgt id='14013'>0.21998E+02</wgt>
<wgt id='14014'>0.21995E+02</wgt>
<wgt id='14015'>0.21992E+02</wgt>
<wgt id='14016'>0.21988E+02</wgt>
<wgt id='14017'>0.21985E+02</wgt>
<wgt id='14018'>0.21981E+02</wgt>
<wgt id='14019'>0.21977E+02</wgt>
<wgt id='14020'>0.21974E+02</wgt>
<wgt id='14021'>0.21971E+02</wgt>
<wgt id='14022'>0.21967E+02</wgt>
<wgt id='14023'>0.21963E+02</wgt>
<wgt id='14024'>0.21960E+02</wgt>
<wgt id='14025'>0.21957E+02</wgt>
<wgt id='14026'>0.21953E+02</wgt>
<wgt id='14027'>0.21950E+02</wgt>
<wgt id='14028'>0.21946E+02</wgt>
<wgt id='14029'>0.21943E+02</wgt>
<wgt id='14030'>0.21939E+02</wgt>
<wgt id='15000'>0.20942E+02</wgt>
<wgt id='15001'>0.20966E+02</wgt>
<wgt id='15002'>0.21042E+02</wgt>
<wgt id='15003'>0.20774E+02</wgt>
<wgt id='15004'>0.20905E+02</wgt>
<wgt id='15005'>0.21028E+02</wgt>
<wgt id='15006'>0.20895E+02</wgt>
<wgt id='15007'>0.20957E+02</wgt>
<wgt id='15008'>0.20981E+02</wgt>
<wgt id='15009'>0.20927E+02</wgt>
<wgt id='15010'>0.20892E+02</wgt>
<wgt id='15011'>0.21170E+02</wgt>
<wgt id='15012'>0.20727E+02</wgt>
<wgt id='15013'>0.20663E+02</wgt>
<wgt id='15014'>0.20732E+02</wgt>
<wgt id='15015'>0.20929E+02</wgt>
<wgt id='15016'>0.21084E+02</wgt>
<wgt id='15017'>0.20938E+02</wgt>
<wgt id='15018'>0.20913E+02</wgt>
<wgt id='15019'>0.20911E+02</wgt>
<wgt id='15020'>0.21033E+02</wgt>
<wgt id='15021'>0.20904E+02</wgt>
<wgt id='15022'>0.20970E+02</wgt>
<wgt id='15023'>0.20908E+02</wgt>
<wgt id='15024'>0.20917E+02</wgt>
<wgt id='15025'>0.20969E+02</wgt>
<wgt id='15026'>0.20943E+02</wgt>
<wgt id='15027'>0.20906E+02</wgt>
<wgt id='15028'>0.20962E+02</wgt>
<wgt id='15029'>0.20964E+02</wgt>
<wgt id='15030'>0.20941E+02</wgt>
<wgt id='15031'>0.20937E+02</wgt>
<wgt id='15032'>0.20961E+02</wgt>
<wgt id='15033'>0.20969E+02</wgt>
<wgt id='15034'>0.20930E+02</wgt>
<wgt id='15035'>0.20975E+02</wgt>
<wgt id='15036'>0.20941E+02</wgt>
<wgt id='15037'>0.20962E+02</wgt>
<wgt id='15038'>0.20944E+02</wgt>
<wgt id='15039'>0.20945E+02</wgt>
<wgt id='15040'>0.20918E+02</wgt>
<wgt id='15041'>0.20933E+02</wgt>
<wgt id='15042'>0.20939E+02</wgt>
<wgt id='15043'>0.20927E+02</wgt>
<wgt id='15044'>0.20949E+02</wgt>
<wgt id='15045'>0.20940E+02</wgt>
<wgt id='15046'>0.20914E+02</wgt>
<wgt id='15047'>0.20932E+02</wgt>
<wgt id='15048'>0.20949E+02</wgt>
<wgt id='15049'>0.20930E+02</wgt>
<wgt id='15050'>0.20947E+02</wgt>
<wgt id='15051'>0.20950E+02</wgt>
<wgt id='15052'>0.20947E+02</wgt>
<wgt id='15053'>0.20945E+02</wgt>
<wgt id='15054'>0.20931E+02</wgt>
<wgt id='15055'>0.20938E+02</wgt>
<wgt id='15056'>0.20961E+02</wgt>
<wgt id='15057'>0.20940E+02</wgt>
<wgt id='15058'>0.20927E+02</wgt>
<wgt id='15059'>0.20933E+02</wgt>
<wgt id='15060'>0.20935E+02</wgt>
<wgt id='15061'>0.20945E+02</wgt>
<wgt id='15062'>0.20945E+02</wgt>
<wgt id='15063'>0.20951E+02</wgt>
<wgt id='15064'>0.20937E+02</wgt>
<wgt id='15065'>0.20941E+02</wgt>
<wgt id='15066'>0.20944E+02</wgt>
<wgt id='15067'>0.20949E+02</wgt>
<wgt id='15068'>0.20949E+02</wgt>
<wgt id='15069'>0.20953E+02</wgt>
<wgt id='15070'>0.20940E+02</wgt>
<wgt id='15071'>0.20955E+02</wgt>
<wgt id='15072'>0.20955E+02</wgt>
<wgt id='15073'>0.20936E+02</wgt>
<wgt id='15074'>0.20945E+02</wgt>
<wgt id='15075'>0.20941E+02</wgt>
<wgt id='15076'>0.20940E+02</wgt>
<wgt id='15077'>0.20945E+02</wgt>
<wgt id='15078'>0.20944E+02</wgt>
<wgt id='15079'>0.20938E+02</wgt>
<wgt id='15080'>0.20956E+02</wgt>
<wgt id='15081'>0.20940E+02</wgt>
<wgt id='15082'>0.20947E+02</wgt>
<wgt id='15083'>0.20935E+02</wgt>
<wgt id='15084'>0.20936E+02</wgt>
<wgt id='15085'>0.20937E+02</wgt>
<wgt id='15086'>0.20945E+02</wgt>
<wgt id='15087'>0.20929E+02</wgt>
<wgt id='15088'>0.20937E+02</wgt>
<wgt id='15089'>0.20937E+02</wgt>
<wgt id='15090'>0.20945E+02</wgt>
<wgt id='15091'>0.20940E+02</wgt>
<wgt id='15092'>0.20941E+02</wgt>
<wgt id='15093'>0.20939E+02</wgt>
<wgt id='15094'>0.20940E+02</wgt>
<wgt id='15095'>0.20944E+02</wgt>
<wgt id='15096'>0.20938E+02</wgt>
<wgt id='15097'>0.20943E+02</wgt>
<wgt id='15098'>0.20942E+02</wgt>
<wgt id='15099'>0.20938E+02</wgt>
<wgt id='15100'>0.20942E+02</wgt>
<wgt id='15101'>0.20942E+02</wgt>
<wgt id='15102'>0.20940E+02</wgt>
<wgt id='15103'>0.20942E+02</wgt>
<wgt id='15104'>0.20942E+02</wgt>
<wgt id='15105'>0.20943E+02</wgt>
<wgt id='15106'>0.20942E+02</wgt>
<wgt id='15107'>0.20941E+02</wgt>
<wgt id='1500'>0.22180E+02</wgt>
<wgt id='1501'>0.20254E+02</wgt>
<wgt id='1502'>0.22192E+02</wgt>
<wgt id='1503'>0.22092E+02</wgt>
<wgt id='1504'>0.21919E+02</wgt>
<wgt id='1505'>0.19452E+02</wgt>
<wgt id='1506'>0.22357E+02</wgt>
<wgt id='1507'>0.22467E+02</wgt>
<wgt id='1508'>0.22318E+02</wgt>
<wgt id='1509'>0.22232E+02</wgt>
<wgt id='1510'>0.21471E+02</wgt>
<wgt id='1511'>0.21754E+02</wgt>
<wgt id='1512'>0.22578E+02</wgt>
<wgt id='1513'>0.22594E+02</wgt>
<wgt id='1514'>0.21645E+02</wgt>
<wgt id='1515'>0.22441E+02</wgt>
<wgt id='1516'>0.22487E+02</wgt>
<wgt id='1517'>0.21890E+02</wgt>
<wgt id='1518'>0.21991E+02</wgt>
<wgt id='1519'>0.22474E+02</wgt>
<wgt id='1520'>0.22516E+02</wgt>
<wgt id='1521'>0.22282E+02</wgt>
<wgt id='1522'>0.22007E+02</wgt>
<wgt id='1523'>0.23861E+02</wgt>
<wgt id='1524'>0.22028E+02</wgt>
<wgt id='1525'>0.22438E+02</wgt>
<wgt id='1526'>0.21853E+02</wgt>
<wgt id='1527'>0.21981E+02</wgt>
<wgt id='1528'>0.21992E+02</wgt>
<wgt id='1529'>0.21986E+02</wgt>
<wgt id='1530'>0.22632E+02</wgt>
<wgt id='1531'>0.22105E+02</wgt>
<wgt id='1532'>0.21606E+02</wgt>
<wgt id='1533'>0.22415E+02</wgt>
<wgt id='1534'>0.22303E+02</wgt>
<wgt id='1535'>0.22835E+02</wgt>
<wgt id='1536'>0.22715E+02</wgt>
<wgt id='1537'>0.22528E+02</wgt>
<wgt id='1538'>0.22409E+02</wgt>
<wgt id='1539'>0.21451E+02</wgt>
<wgt id='1540'>0.22514E+02</wgt>
<wgt id='1541'>0.22176E+02</wgt>
<wgt id='1542'>0.22361E+02</wgt>
<wgt id='1543'>0.22402E+02</wgt>
<wgt id='1544'>0.22008E+02</wgt>
<wgt id='1545'>0.22309E+02</wgt>
<wgt id='1546'>0.22440E+02</wgt>
<wgt id='1547'>0.21851E+02</wgt>
<wgt id='1548'>0.21846E+02</wgt>
<wgt id='1549'>0.22165E+02</wgt>
<wgt id='1550'>0.22201E+02</wgt>
<wgt id='1551'>0.22163E+02</wgt>
<wgt id='1552'>0.22024E+02</wgt>
<wgt id='1553'>0.22509E+02</wgt>
<wgt id='1554'>0.22257E+02</wgt>
<wgt id='1555'>0.22136E+02</wgt>
<wgt id='1556'>0.21636E+02</wgt>
<wgt id='1557'>0.22904E+02</wgt>
<wgt id='1558'>0.21953E+02</wgt>
<wgt id='1559'>0.22447E+02</wgt>
<wgt id='1560'>0.22116E+02</wgt>
<wgt id='1561'>0.22323E+02</wgt>
<wgt id='1562'>0.22191E+02</wgt>
<wgt id='1563'>0.22558E+02</wgt>
<wgt id='1564'>0.21787E+02</wgt>
<wgt id='1565'>0.22458E+02</wgt>
<wgt id='1566'>0.22312E+02</wgt>
<wgt id='1567'>0.23407E+02</wgt>
<wgt id='1568'>0.21834E+02</wgt>
<wgt id='1569'>0.21666E+02</wgt>
<wgt id='1570'>0.22175E+02</wgt>
<wgt id='1571'>0.22585E+02</wgt>
<wgt id='1572'>0.22150E+02</wgt>
<wgt id='1573'>0.20713E+02</wgt>
<wgt id='1574'>0.22386E+02</wgt>
<wgt id='1575'>0.21989E+02</wgt>
<wgt id='1576'>0.21668E+02</wgt>
<wgt id='1577'>0.22397E+02</wgt>
<wgt id='1578'>0.23002E+02</wgt>
<wgt id='1579'>0.22049E+02</wgt>
<wgt id='1580'>0.22300E+02</wgt>
<wgt id='1581'>0.22338E+02</wgt>
<wgt id='1582'>0.21975E+02</wgt>
<wgt id='1583'>0.22363E+02</wgt>
<wgt id='1584'>0.22221E+02</wgt>
<wgt id='1585'>0.21589E+02</wgt>
<wgt id='1586'>0.22092E+02</wgt>
<wgt id='1587'>0.22129E+02</wgt>
<wgt id='1588'>0.22195E+02</wgt>
<wgt id='1589'>0.22717E+02</wgt>
<wgt id='1590'>0.22060E+02</wgt>
<wgt id='1591'>0.21740E+02</wgt>
<wgt id='1592'>0.22597E+02</wgt>
<wgt id='1593'>0.22036E+02</wgt>
<wgt id='1594'>0.22677E+02</wgt>
<wgt id='1595'>0.21782E+02</wgt>
<wgt id='1596'>0.22551E+02</wgt>
<wgt id='1597'>0.22230E+02</wgt>
<wgt id='1598'>0.23042E+02</wgt>
<wgt id='1599'>0.22761E+02</wgt>
<wgt id='1600'>0.22207E+02</wgt>
<wgt id='1601'>0.21849E+02</wgt>
<wgt id='1602'>0.22349E+02</wgt>
<wgt id='1700'>0.21368E+02</wgt>
<wgt id='1800'>0.25684E+02</wgt>
<wgt id='1850'>0.30598E+02</wgt>
<wgt id='1900'>0.25675E+02</wgt>
<wgt id='1950'>0.29776E+02</wgt>
</rwgt>
</event>
<event>
      4   9999  2.16956E+01  8.86148E+01 -1.00000E+00  1.24586E-01
       1    -1     0     0   502     0  0.000000000E+00  0.000000000E+00  2.737558654E+02  2.737558654E+02  0.000000000E+00  0.00000E+00  9.000E+00
      21    -1     0     0   501   502  0.000000000E+00  0.000000000E+00 -1.185989152E+02  1.185989152E+02  0.000000000E+00  0.00000E+00  9.000E+00
      25     1     1     2     0     0 -4.349136715E+01 -7.720809716E+01 -5.617391875E+01  1.631969192E+02  1.250005440E+02  0.00000E+00  9.000E+00
       1     1     1     2   501     0  4.349136715E+01  7.720809716E+01  2.113308689E+02  2.291578614E+02  0.000000000E+00  0.00000E+00  9.000E+00
#rwgt            1           1   19.610534730102881                1        7783           0
<rwgt>
<wgt id='1001'>0.21696E+02</wgt>
<wgt id='1002'>0.21144E+02</wgt>
<wgt id='1003'>0.22000E+02</wgt>
<wgt id='1004'>0.19815E+02</wgt>
<wgt id='1005'>0.19559E+02</wgt>
<wgt id='1006'>0.19821E+02</wgt>
<wgt id='1007'>0.23409E+02</wgt>
<wgt id='1008'>0.22364E+02</wgt>
<wgt id='1009'>0.24229E+02</wgt>
<wgt id='2000'>0.21696E+02</wgt>
<wgt id='2001'>0.21673E+02</wgt>
<wgt id='2002'>0.21801E+02</wgt>
<wgt id='2003'>0.21796E+02</wgt>
<wgt id='2004'>0.21722E+02</wgt>
<wgt id='2005'>0.21630E+02</wgt>
<wgt id='2006'>0.21623E+02</wgt>
<wgt id='2007'>0.21586E+02</wgt>
<wgt id='2008'>0.21642E+02</wgt>
<wgt id='2009'>0.21726E+02</wgt>
<wgt id='2010'>0.21680E+02</wgt>
<wgt id='2011'>0.21817E+02</wgt>
<wgt id='2012'>0.21840E+02</wgt>
<wgt id='2013'>0.21938E+02</wgt>
<wgt id='2014'>0.21794E+02</wgt>
<wgt id='2015'>0.21752E+02</wgt>
<wgt id='2016'>0.21628E+02</wgt>
<wgt id='2017'>0.21693E+02</wgt>
<wgt id='2018'>0.21802E+02</wgt>
<wgt id='2019'>0.21681E+02</wgt>
<wgt id='2020'>0.21765E+02</wgt>
<wgt id='2021'>0.21658E+02</wgt>
<wgt id='2022'>0.21701E+02</wgt>
<wgt id='2023'>0.21713E+02</wgt>
<wgt id='2024'>0.21715E+02</wgt>
<wgt id='2025'>0.21677E+02</wgt>
<wgt id='2026'>0.21678E+02</wgt>
<wgt id='2027'>0.21691E+02</wgt>
<wgt id='2028'>0.21704E+02</wgt>
<wgt id='2029'>0.21715E+02</wgt>
<wgt id='2030'>0.21706E+02</wgt>
<wgt id='2031'>0.21696E+02</wgt>
<wgt id='2032'>0.21702E+02</wgt>
<wgt id='2033'>0.21701E+02</wgt>
<wgt id='2034'>0.21702E+02</wgt>
<wgt id='2035'>0.21693E+02</wgt>
<wgt id='2036'>0.21694E+02</wgt>
<wgt id='2037'>0.21701E+02</wgt>
<wgt id='2038'>0.21694E+02</wgt>
<wgt id='2039'>0.21685E+02</wgt>
<wgt id='2040'>0.21693E+02</wgt>
<wgt id='2041'>0.21694E+02</wgt>
<wgt id='2042'>0.21690E+02</wgt>
<wgt id='2043'>0.21694E+02</wgt>
<wgt id='2044'>0.21702E+02</wgt>
<wgt id='2045'>0.21694E+02</wgt>
<wgt id='2046'>0.21703E+02</wgt>
<wgt id='2047'>0.21702E+02</wgt>
<wgt id='2048'>0.21693E+02</wgt>
<wgt id='2049'>0.21694E+02</wgt>
<wgt id='2050'>0.21701E+02</wgt>
<wgt id='2051'>0.21701E+02</wgt>
<wgt id='2052'>0.21694E+02</wgt>
<wgt id='2053'>0.21696E+02</wgt>
<wgt id='2054'>0.21696E+02</wgt>
<wgt id='2055'>0.21696E+02</wgt>
<wgt id='2056'>0.21695E+02</wgt>
<wgt id='2057'>0.21696E+02</wgt>
<wgt id='2058'>0.21698E+02</wgt>
<wgt id='2059'>0.21693E+02</wgt>
<wgt id='2060'>0.21696E+02</wgt>
<wgt id='2061'>0.21693E+02</wgt>
<wgt id='2062'>0.21697E+02</wgt>
<wgt id='2063'>0.21695E+02</wgt>
<wgt id='2064'>0.21694E+02</wgt>
<wgt id='2065'>0.21697E+02</wgt>
<wgt id='2066'>0.21694E+02</wgt>
<wgt id='2067'>0.21697E+02</wgt>
<wgt id='2068'>0.21696E+02</wgt>
<wgt id='2069'>0.21692E+02</wgt>
<wgt id='2070'>0.21693E+02</wgt>
<wgt id='2071'>0.21689E+02</wgt>
<wgt id='2072'>0.21696E+02</wgt>
<wgt id='2073'>0.21694E+02</wgt>
<wgt id='2074'>0.21689E+02</wgt>
<wgt id='2075'>0.21697E+02</wgt>
<wgt id='2076'>0.21691E+02</wgt>
<wgt id='2077'>0.21695E+02</wgt>
<wgt id='2078'>0.21699E+02</wgt>
<wgt id='2079'>0.21695E+02</wgt>
<wgt id='2080'>0.21694E+02</wgt>
<wgt id='2081'>0.21697E+02</wgt>
<wgt id='2082'>0.21695E+02</wgt>
<wgt id='2083'>0.21696E+02</wgt>
<wgt id='2084'>0.21697E+02</wgt>
<wgt id='2085'>0.21698E+02</wgt>
<wgt id='2086'>0.21693E+02</wgt>
<wgt id='2087'>0.21694E+02</wgt>
<wgt id='2088'>0.21698E+02</wgt>
<wgt id='2089'>0.21694E+02</wgt>
<wgt id='2090'>0.21695E+02</wgt>
<wgt id='2091'>0.21696E+02</wgt>
<wgt id='2092'>0.21696E+02</wgt>
<wgt id='2093'>0.21695E+02</wgt>
<wgt id='2094'>0.21698E+02</wgt>
<wgt id='2095'>0.21697E+02</wgt>
<wgt id='2096'>0.21695E+02</wgt>
<wgt id='2097'>0.21696E+02</wgt>
<wgt id='2098'>0.21696E+02</wgt>
<wgt id='2099'>0.21696E+02</wgt>
<wgt id='2100'>0.21696E+02</wgt>
<wgt id='2101'>0.21281E+02</wgt>
<wgt id='2102'>0.22018E+02</wgt>
<wgt id='2104'>0.19837E+02</wgt>
<wgt id='2105'>0.20133E+02</wgt>
<wgt id='2106'>0.20511E+02</wgt>
<wgt id='2107'>0.20965E+02</wgt>
<wgt id='2108'>0.21567E+02</wgt>
<wgt id='2109'>0.21934E+02</wgt>
<wgt id='2110'>0.22352E+02</wgt>
<wgt id='2111'>0.22706E+02</wgt>
<wgt id='3000'>0.22563E+02</wgt>
<wgt id='3001'>0.22659E+02</wgt>
<wgt id='3002'>0.22457E+02</wgt>
<wgt id='3003'>0.22666E+02</wgt>
<wgt id='3004'>0.22618E+02</wgt>
<wgt id='3005'>0.22695E+02</wgt>
<wgt id='3006'>0.22604E+02</wgt>
<wgt id='3007'>0.22628E+02</wgt>
<wgt id='3008'>0.22482E+02</wgt>
<wgt id='3009'>0.22544E+02</wgt>
<wgt id='3010'>0.22460E+02</wgt>
<wgt id='3011'>0.22624E+02</wgt>
<wgt id='3012'>0.22762E+02</wgt>
<wgt id='3013'>0.22337E+02</wgt>
<wgt id='3014'>0.22678E+02</wgt>
<wgt id='3015'>0.22670E+02</wgt>
<wgt id='3016'>0.22575E+02</wgt>
<wgt id='3017'>0.22690E+02</wgt>
<wgt id='3018'>0.22590E+02</wgt>
<wgt id='3019'>0.22465E+02</wgt>
<wgt id='3020'>0.22558E+02</wgt>
<wgt id='3021'>0.22505E+02</wgt>
<wgt id='3022'>0.22558E+02</wgt>
<wgt id='3023'>0.22546E+02</wgt>
<wgt id='3024'>0.22583E+02</wgt>
<wgt id='3025'>0.22569E+02</wgt>
<wgt id='3026'>0.22552E+02</wgt>
<wgt id='3027'>0.22575E+02</wgt>
<wgt id='3028'>0.22573E+02</wgt>
<wgt id='3029'>0.22576E+02</wgt>
<wgt id='3030'>0.22581E+02</wgt>
<wgt id='3031'>0.22569E+02</wgt>
<wgt id='3032'>0.22550E+02</wgt>
<wgt id='3033'>0.22559E+02</wgt>
<wgt id='3034'>0.22559E+02</wgt>
<wgt id='3035'>0.22579E+02</wgt>
<wgt id='3036'>0.22570E+02</wgt>
<wgt id='3037'>0.22563E+02</wgt>
<wgt id='3038'>0.22563E+02</wgt>
<wgt id='3039'>0.22569E+02</wgt>
<wgt id='3040'>0.22555E+02</wgt>
<wgt id='3041'>0.22562E+02</wgt>
<wgt id='3042'>0.22559E+02</wgt>
<wgt id='3043'>0.22558E+02</wgt>
<wgt id='3044'>0.22567E+02</wgt>
<wgt id='3045'>0.22569E+02</wgt>
<wgt id='3046'>0.22570E+02</wgt>
<wgt id='3047'>0.22563E+02</wgt>
<wgt id='3048'>0.22564E+02</wgt>
<wgt id='3049'>0.22561E+02</wgt>
<wgt id='3050'>0.22559E+02</wgt>
<wgt id='3051'>0.22570E+02</wgt>
<wgt id='3052'>0.22559E+02</wgt>
<wgt id='3053'>0.22561E+02</wgt>
<wgt id='3054'>0.22562E+02</wgt>
<wgt id='3055'>0.22558E+02</wgt>
<wgt id='3056'>0.22564E+02</wgt>
<wgt id='3057'>0.22561E+02</wgt>
<wgt id='3058'>0.22559E+02</wgt>
<wgt id='3059'>0.22563E+02</wgt>
<wgt id='3060'>0.22565E+02</wgt>
<wgt id='3061'>0.22565E+02</wgt>
<wgt id='3062'>0.22566E+02</wgt>
<wgt id='3063'>0.22567E+02</wgt>
<wgt id='3064'>0.22562E+02</wgt>
<wgt id='3065'>0.22564E+02</wgt>
<wgt id='3066'>0.22565E+02</wgt>
<wgt id='3067'>0.22559E+02</wgt>
<wgt id='3068'>0.22564E+02</wgt>
<wgt id='3069'>0.22561E+02</wgt>
<wgt id='3070'>0.22562E+02</wgt>
<wgt id='3071'>0.22563E+02</wgt>
<wgt id='3072'>0.22565E+02</wgt>
<wgt id='3073'>0.22561E+02</wgt>
<wgt id='3074'>0.22566E+02</wgt>
<wgt id='3075'>0.22564E+02</wgt>
<wgt id='3076'>0.22563E+02</wgt>
<wgt id='3077'>0.22563E+02</wgt>
<wgt id='3078'>0.22565E+02</wgt>
<wgt id='3079'>0.22563E+02</wgt>
<wgt id='3080'>0.22561E+02</wgt>
<wgt id='3081'>0.22564E+02</wgt>
<wgt id='3082'>0.22562E+02</wgt>
<wgt id='3083'>0.22563E+02</wgt>
<wgt id='3084'>0.22563E+02</wgt>
<wgt id='3085'>0.22563E+02</wgt>
<wgt id='3086'>0.22563E+02</wgt>
<wgt id='3087'>0.22561E+02</wgt>
<wgt id='3088'>0.22563E+02</wgt>
<wgt id='3089'>0.22563E+02</wgt>
<wgt id='3090'>0.22563E+02</wgt>
<wgt id='3091'>0.22564E+02</wgt>
<wgt id='3092'>0.22564E+02</wgt>
<wgt id='3093'>0.22563E+02</wgt>
<wgt id='3094'>0.22564E+02</wgt>
<wgt id='3095'>0.22563E+02</wgt>
<wgt id='3096'>0.22563E+02</wgt>
<wgt id='3097'>0.22562E+02</wgt>
<wgt id='3098'>0.22564E+02</wgt>
<wgt id='3099'>0.22564E+02</wgt>
<wgt id='3100'>0.22563E+02</wgt>
<wgt id='3101'>0.22172E+02</wgt>
<wgt id='3102'>0.23043E+02</wgt>
<wgt id='5000'>0.21099E+02</wgt>
<wgt id='5001'>0.21003E+02</wgt>
<wgt id='5002'>0.21072E+02</wgt>
<wgt id='5003'>0.20934E+02</wgt>
<wgt id='5004'>0.21182E+02</wgt>
<wgt id='5005'>0.20541E+02</wgt>
<wgt id='5006'>0.21566E+02</wgt>
<wgt id='5007'>0.21276E+02</wgt>
<wgt id='5008'>0.20771E+02</wgt>
<wgt id='5009'>0.21416E+02</wgt>
<wgt id='5010'>0.20933E+02</wgt>
<wgt id='5011'>0.21053E+02</wgt>
<wgt id='5012'>0.21091E+02</wgt>
<wgt id='5013'>0.20580E+02</wgt>
<wgt id='5014'>0.21076E+02</wgt>
<wgt id='5015'>0.21283E+02</wgt>
<wgt id='5016'>0.20541E+02</wgt>
<wgt id='5017'>0.21171E+02</wgt>
<wgt id='5018'>0.21021E+02</wgt>
<wgt id='5019'>0.20992E+02</wgt>
<wgt id='5020'>0.21182E+02</wgt>
<wgt id='5021'>0.21188E+02</wgt>
<wgt id='5022'>0.21042E+02</wgt>
<wgt id='5023'>0.21052E+02</wgt>
<wgt id='5024'>0.21144E+02</wgt>
<wgt id='5025'>0.21058E+02</wgt>
<wgt id='5026'>0.21132E+02</wgt>
<wgt id='5027'>0.21348E+02</wgt>
<wgt id='5028'>0.20680E+02</wgt>
<wgt id='5029'>0.20648E+02</wgt>
<wgt id='5030'>0.21371E+02</wgt>
<wgt id='5031'>0.20832E+02</wgt>
<wgt id='5032'>0.21486E+02</wgt>
<wgt id='5033'>0.20905E+02</wgt>
<wgt id='5034'>0.21266E+02</wgt>
<wgt id='5035'>0.20722E+02</wgt>
<wgt id='5036'>0.21404E+02</wgt>
<wgt id='5037'>0.21104E+02</wgt>
<wgt id='5038'>0.21080E+02</wgt>
<wgt id='5039'>0.21482E+02</wgt>
<wgt id='5040'>0.20903E+02</wgt>
<wgt id='5041'>0.20815E+02</wgt>
<wgt id='5042'>0.21150E+02</wgt>
<wgt id='5043'>0.21353E+02</wgt>
<wgt id='5044'>0.20452E+02</wgt>
<wgt id='5045'>0.21865E+02</wgt>
<wgt id='5046'>0.20889E+02</wgt>
<wgt id='5047'>0.21294E+02</wgt>
<wgt id='5048'>0.21188E+02</wgt>
<wgt id='5049'>0.21117E+02</wgt>
<wgt id='5050'>0.21136E+02</wgt>
<wgt id='5051'>0.21167E+02</wgt>
<wgt id='5052'>0.21071E+02</wgt>
<wgt id='5053'>0.21006E+02</wgt>
<wgt id='5054'>0.21781E+02</wgt>
<wgt id='5055'>0.20965E+02</wgt>
<wgt id='5056'>0.21212E+02</wgt>
<wgt id='5060'>0.20778E+02</wgt>
<wgt id='5070'>0.21329E+02</wgt>
<wgt id='4000'>0.22243E+02</wgt>
<wgt id='4001'>0.22266E+02</wgt>
<wgt id='4002'>0.22314E+02</wgt>
<wgt id='4003'>0.22936E+02</wgt>
<wgt id='4004'>0.21954E+02</wgt>
<wgt id='4005'>0.22329E+02</wgt>
<wgt id='4006'>0.22163E+02</wgt>
<wgt id='4007'>0.22574E+02</wgt>
<wgt id='4008'>0.22098E+02</wgt>
<wgt id='4009'>0.21693E+02</wgt>
<wgt id='4010'>0.22690E+02</wgt>
<wgt id='4011'>0.22632E+02</wgt>
<wgt id='4012'>0.22021E+02</wgt>
<wgt id='4013'>0.21292E+02</wgt>
<wgt id='4014'>0.22800E+02</wgt>
<wgt id='4015'>0.22438E+02</wgt>
<wgt id='4016'>0.22114E+02</wgt>
<wgt id='4017'>0.22028E+02</wgt>
<wgt id='4018'>0.22500E+02</wgt>
<wgt id='4019'>0.22560E+02</wgt>
<wgt id='4020'>0.21887E+02</wgt>
<wgt id='4021'>0.22311E+02</wgt>
<wgt id='4022'>0.22099E+02</wgt>
<wgt id='4023'>0.22108E+02</wgt>
<wgt id='4024'>0.22364E+02</wgt>
<wgt id='4025'>0.21852E+02</wgt>
<wgt id='4026'>0.22603E+02</wgt>
<wgt id='4027'>0.22151E+02</wgt>
<wgt id='4028'>0.22367E+02</wgt>
<wgt id='4029'>0.22052E+02</wgt>
<wgt id='4030'>0.22309E+02</wgt>
<wgt id='4031'>0.22275E+02</wgt>
<wgt id='4032'>0.22202E+02</wgt>
<wgt id='4033'>0.22238E+02</wgt>
<wgt id='4034'>0.22247E+02</wgt>
<wgt id='4035'>0.22644E+02</wgt>
<wgt id='4036'>0.21855E+02</wgt>
<wgt id='4037'>0.22464E+02</wgt>
<wgt id='4038'>0.21881E+02</wgt>
<wgt id='4039'>0.22237E+02</wgt>
<wgt id='4040'>0.22205E+02</wgt>
<wgt id='4041'>0.22468E+02</wgt>
<wgt id='4042'>0.22027E+02</wgt>
<wgt id='4043'>0.22500E+02</wgt>
<wgt id='4044'>0.21944E+02</wgt>
<wgt id='4045'>0.21970E+02</wgt>
<wgt id='4046'>0.22111E+02</wgt>
<wgt id='4047'>0.21886E+02</wgt>
<wgt id='4048'>0.22599E+02</wgt>
<wgt id='4049'>0.22435E+02</wgt>
<wgt id='4050'>0.21706E+02</wgt>
<wgt id='4051'>0.22199E+02</wgt>
<wgt id='4052'>0.22179E+02</wgt>
<wgt id='4053'>0.21674E+02</wgt>
<wgt id='4054'>0.22422E+02</wgt>
<wgt id='4055'>0.22048E+02</wgt>
<wgt id='4056'>0.22419E+02</wgt>
<wgt id='4060'>0.21809E+02</wgt>
<wgt id='4070'>0.22609E+02</wgt>
<wgt id='4080'>0.21725E+02</wgt>
<wgt id='6000'>0.22652E+02</wgt>
<wgt id='6001'>0.22659E+02</wgt>
<wgt id='6002'>0.22643E+02</wgt>
<wgt id='6003'>0.22661E+02</wgt>
<wgt id='6004'>0.22645E+02</wgt>
<wgt id='6005'>0.22721E+02</wgt>
<wgt id='6006'>0.22587E+02</wgt>
<wgt id='6007'>0.22547E+02</wgt>
<wgt id='6008'>0.22769E+02</wgt>
<wgt id='6009'>0.22724E+02</wgt>
<wgt id='6010'>0.22581E+02</wgt>
<wgt id='6011'>0.22702E+02</wgt>
<wgt id='6012'>0.22542E+02</wgt>
<wgt id='6013'>0.22627E+02</wgt>
<wgt id='6014'>0.22696E+02</wgt>
<wgt id='6015'>0.22576E+02</wgt>
<wgt id='6016'>0.22694E+02</wgt>
<wgt id='6017'>0.22518E+02</wgt>
<wgt id='6018'>0.22809E+02</wgt>
<wgt id='6019'>0.22689E+02</wgt>
<wgt id='6020'>0.22620E+02</wgt>
<wgt id='6021'>0.22598E+02</wgt>
<wgt id='6022'>0.22724E+02</wgt>
<wgt id='6023'>0.22487E+02</wgt>
<wgt id='6024'>0.22767E+02</wgt>
<wgt id='6025'>0.22324E+02</wgt>
<wgt id='6026'>0.22954E+02</wgt>
<wgt id='6027'>0.22713E+02</wgt>
<wgt id='6028'>0.22652E+02</wgt>
<wgt id='6029'>0.22813E+02</wgt>
<wgt id='6030'>0.22464E+02</wgt>
<wgt id='6031'>0.22692E+02</wgt>
<wgt id='6032'>0.22599E+02</wgt>
<wgt id='6033'>0.22693E+02</wgt>
<wgt id='6034'>0.22607E+02</wgt>
<wgt id='6035'>0.22632E+02</wgt>
<wgt id='6036'>0.22742E+02</wgt>
<wgt id='6037'>0.22695E+02</wgt>
<wgt id='6038'>0.22646E+02</wgt>
<wgt id='6039'>0.22633E+02</wgt>
<wgt id='6040'>0.22672E+02</wgt>
<wgt id='6041'>0.22606E+02</wgt>
<wgt id='6042'>0.22707E+02</wgt>
<wgt id='6043'>0.22953E+02</wgt>
<wgt id='6044'>0.22501E+02</wgt>
<wgt id='6045'>0.22630E+02</wgt>
<wgt id='6046'>0.22706E+02</wgt>
<wgt id='6047'>0.22549E+02</wgt>
<wgt id='6048'>0.22547E+02</wgt>
<wgt id='6049'>0.22605E+02</wgt>
<wgt id='6050'>0.22659E+02</wgt>
<wgt id='7000'>0.21264E+02</wgt>
<wgt id='7001'>0.21255E+02</wgt>
<wgt id='7002'>0.21278E+02</wgt>
<wgt id='7003'>0.21336E+02</wgt>
<wgt id='7004'>0.21194E+02</wgt>
<wgt id='7005'>0.21308E+02</wgt>
<wgt id='7006'>0.21248E+02</wgt>
<wgt id='7007'>0.21176E+02</wgt>
<wgt id='7008'>0.21354E+02</wgt>
<wgt id='7009'>0.21302E+02</wgt>
<wgt id='7010'>0.21229E+02</wgt>
<wgt id='7011'>0.21057E+02</wgt>
<wgt id='7012'>0.21355E+02</wgt>
<wgt id='7013'>0.21266E+02</wgt>
<wgt id='7014'>0.21263E+02</wgt>
<wgt id='7015'>0.21203E+02</wgt>
<wgt id='7016'>0.21331E+02</wgt>
<wgt id='7017'>0.21223E+02</wgt>
<wgt id='7018'>0.21287E+02</wgt>
<wgt id='7019'>0.21238E+02</wgt>
<wgt id='7020'>0.21302E+02</wgt>
<wgt id='7021'>0.21250E+02</wgt>
<wgt id='7022'>0.21274E+02</wgt>
<wgt id='7023'>0.21540E+02</wgt>
<wgt id='7024'>0.21001E+02</wgt>
<wgt id='7025'>0.21369E+02</wgt>
<wgt id='7026'>0.21010E+02</wgt>
<wgt id='7027'>0.21365E+02</wgt>
<wgt id='7028'>0.21216E+02</wgt>
<wgt id='7029'>0.21152E+02</wgt>
<wgt id='7030'>0.21565E+02</wgt>
<wgt id='7031'>0.21267E+02</wgt>
<wgt id='7032'>0.21266E+02</wgt>
<wgt id='7033'>0.21230E+02</wgt>
<wgt id='7034'>0.21342E+02</wgt>
<wgt id='7035'>0.21334E+02</wgt>
<wgt id='7036'>0.21244E+02</wgt>
<wgt id='7037'>0.21275E+02</wgt>
<wgt id='7038'>0.21266E+02</wgt>
<wgt id='7039'>0.21248E+02</wgt>
<wgt id='7040'>0.21277E+02</wgt>
<wgt id='7041'>0.21222E+02</wgt>
<wgt id='7042'>0.21288E+02</wgt>
<wgt id='7043'>0.21284E+02</wgt>
<wgt id='7044'>0.21151E+02</wgt>
<wgt id='7045'>0.21093E+02</wgt>
<wgt id='7046'>0.21288E+02</wgt>
<wgt id='7047'>0.21265E+02</wgt>
<wgt id='7048'>0.21254E+02</wgt>
<wgt id='7049'>0.21258E+02</wgt>
<wgt id='7050'>0.21190E+02</wgt>
<wgt id='7060'>0.31329E+02</wgt>
<wgt id='8000'>0.21526E+02</wgt>
<wgt id='8001'>0.21521E+02</wgt>
<wgt id='8002'>0.21533E+02</wgt>
<wgt id='8003'>0.21529E+02</wgt>
<wgt id='8004'>0.21526E+02</wgt>
<wgt id='8005'>0.21471E+02</wgt>
<wgt id='8006'>0.21511E+02</wgt>
<wgt id='8007'>0.21493E+02</wgt>
<wgt id='8008'>0.21566E+02</wgt>
<wgt id='8009'>0.21609E+02</wgt>
<wgt id='8010'>0.21528E+02</wgt>
<wgt id='8011'>0.21514E+02</wgt>
<wgt id='8012'>0.21504E+02</wgt>
<wgt id='8013'>0.21526E+02</wgt>
<wgt id='8014'>0.21511E+02</wgt>
<wgt id='8015'>0.21510E+02</wgt>
<wgt id='8016'>0.21531E+02</wgt>
<wgt id='8017'>0.21531E+02</wgt>
<wgt id='8018'>0.21518E+02</wgt>
<wgt id='8019'>0.21571E+02</wgt>
<wgt id='8020'>0.21443E+02</wgt>
<wgt id='8021'>0.21532E+02</wgt>
<wgt id='8022'>0.21375E+02</wgt>
<wgt id='8023'>0.21557E+02</wgt>
<wgt id='8024'>0.21588E+02</wgt>
<wgt id='8025'>0.21616E+02</wgt>
<wgt id='8026'>0.21575E+02</wgt>
<wgt id='8027'>0.21483E+02</wgt>
<wgt id='8028'>0.21549E+02</wgt>
<wgt id='8029'>0.21366E+02</wgt>
<wgt id='8500'>0.22316E+02</wgt>
<wgt id='8501'>0.22288E+02</wgt>
<wgt id='8502'>0.22572E+02</wgt>
<wgt id='8503'>0.22491E+02</wgt>
<wgt id='8504'>0.22262E+02</wgt>
<wgt id='8505'>0.22188E+02</wgt>
<wgt id='8506'>0.22243E+02</wgt>
<wgt id='8507'>0.22469E+02</wgt>
<wgt id='8508'>0.22713E+02</wgt>
<wgt id='8509'>0.22139E+02</wgt>
<wgt id='8510'>0.22679E+02</wgt>
<wgt id='8511'>0.22334E+02</wgt>
<wgt id='8512'>0.22011E+02</wgt>
<wgt id='8513'>0.22356E+02</wgt>
<wgt id='8514'>0.22238E+02</wgt>
<wgt id='8515'>0.22306E+02</wgt>
<wgt id='8516'>0.22400E+02</wgt>
<wgt id='8517'>0.22299E+02</wgt>
<wgt id='8518'>0.22255E+02</wgt>
<wgt id='8519'>0.22254E+02</wgt>
<wgt id='8520'>0.22337E+02</wgt>
<wgt id='8521'>0.22219E+02</wgt>
<wgt id='8522'>0.22331E+02</wgt>
<wgt id='8523'>0.22285E+02</wgt>
<wgt id='8524'>0.22320E+02</wgt>
<wgt id='8525'>0.22292E+02</wgt>
<wgt id='8526'>0.22285E+02</wgt>
<wgt id='8527'>0.22319E+02</wgt>
<wgt id='8528'>0.22260E+02</wgt>
<wgt id='8529'>0.22305E+02</wgt>
<wgt id='8530'>0.22313E+02</wgt>
<wgt id='8531'>0.22309E+02</wgt>
<wgt id='8532'>0.22321E+02</wgt>
<wgt id='8533'>0.22273E+02</wgt>
<wgt id='8534'>0.22325E+02</wgt>
<wgt id='8535'>0.22364E+02</wgt>
<wgt id='8536'>0.22300E+02</wgt>
<wgt id='8537'>0.22325E+02</wgt>
<wgt id='8538'>0.22294E+02</wgt>
<wgt id='8539'>0.22321E+02</wgt>
<wgt id='8540'>0.22319E+02</wgt>
<wgt id='8541'>0.22326E+02</wgt>
<wgt id='8542'>0.22332E+02</wgt>
<wgt id='8543'>0.22299E+02</wgt>
<wgt id='8544'>0.22337E+02</wgt>
<wgt id='8545'>0.22334E+02</wgt>
<wgt id='8546'>0.22338E+02</wgt>
<wgt id='8547'>0.22298E+02</wgt>
<wgt id='8548'>0.22295E+02</wgt>
<wgt id='8549'>0.22318E+02</wgt>
<wgt id='8550'>0.22321E+02</wgt>
<wgt id='8551'>0.22297E+02</wgt>
<wgt id='8552'>0.22322E+02</wgt>
<wgt id='8553'>0.22309E+02</wgt>
<wgt id='8554'>0.22308E+02</wgt>
<wgt id='8555'>0.22319E+02</wgt>
<wgt id='8556'>0.22315E+02</wgt>
<wgt id='8557'>0.22312E+02</wgt>
<wgt id='8558'>0.22339E+02</wgt>
<wgt id='8559'>0.22307E+02</wgt>
<wgt id='8560'>0.22294E+02</wgt>
<wgt id='8561'>0.22314E+02</wgt>
<wgt id='8562'>0.22300E+02</wgt>
<wgt id='8563'>0.22318E+02</wgt>
<wgt id='8564'>0.22312E+02</wgt>
<wgt id='8565'>0.22315E+02</wgt>
<wgt id='8566'>0.22311E+02</wgt>
<wgt id='8567'>0.22314E+02</wgt>
<wgt id='8568'>0.22324E+02</wgt>
<wgt id='8569'>0.22322E+02</wgt>
<wgt id='8570'>0.22316E+02</wgt>
<wgt id='8571'>0.22308E+02</wgt>
<wgt id='8572'>0.22310E+02</wgt>
<wgt id='8573'>0.22308E+02</wgt>
<wgt id='8574'>0.22322E+02</wgt>
<wgt id='8575'>0.22314E+02</wgt>
<wgt id='8576'>0.22314E+02</wgt>
<wgt id='8577'>0.22316E+02</wgt>
<wgt id='8578'>0.22319E+02</wgt>
<wgt id='8579'>0.22328E+02</wgt>
<wgt id='8580'>0.22316E+02</wgt>
<wgt id='8581'>0.22320E+02</wgt>
<wgt id='8582'>0.22303E+02</wgt>
<wgt id='8583'>0.22326E+02</wgt>
<wgt id='8584'>0.22321E+02</wgt>
<wgt id='8585'>0.22320E+02</wgt>
<wgt id='8586'>0.22326E+02</wgt>
<wgt id='8587'>0.22313E+02</wgt>
<wgt id='8588'>0.22311E+02</wgt>
<wgt id='8589'>0.22318E+02</wgt>
<wgt id='8590'>0.22315E+02</wgt>
<wgt id='8591'>0.22314E+02</wgt>
<wgt id='8592'>0.22316E+02</wgt>
<wgt id='8593'>0.22309E+02</wgt>
<wgt id='8594'>0.22320E+02</wgt>
<wgt id='8595'>0.22319E+02</wgt>
<wgt id='8596'>0.22312E+02</wgt>
<wgt id='8597'>0.22319E+02</wgt>
<wgt id='8598'>0.22321E+02</wgt>
<wgt id='8599'>0.22319E+02</wgt>
<wgt id='8600'>0.22316E+02</wgt>
<wgt id='8601'>0.22001E+02</wgt>
<wgt id='8602'>0.22562E+02</wgt>
<wgt id='9000'>0.21233E+02</wgt>
<wgt id='9001'>0.21274E+02</wgt>
<wgt id='9002'>0.21359E+02</wgt>
<wgt id='9003'>0.21017E+02</wgt>
<wgt id='9004'>0.21182E+02</wgt>
<wgt id='9005'>0.21355E+02</wgt>
<wgt id='9006'>0.21155E+02</wgt>
<wgt id='9007'>0.21229E+02</wgt>
<wgt id='9008'>0.21278E+02</wgt>
<wgt id='9009'>0.21217E+02</wgt>
<wgt id='9010'>0.21200E+02</wgt>
<wgt id='9011'>0.21488E+02</wgt>
<wgt id='9012'>0.20921E+02</wgt>
<wgt id='9013'>0.20910E+02</wgt>
<wgt id='9014'>0.20941E+02</wgt>
<wgt id='9015'>0.21205E+02</wgt>
<wgt id='9016'>0.21310E+02</wgt>
<wgt id='9017'>0.21266E+02</wgt>
<wgt id='9018'>0.21239E+02</wgt>
<wgt id='9019'>0.21211E+02</wgt>
<wgt id='9020'>0.21317E+02</wgt>
<wgt id='9021'>0.21215E+02</wgt>
<wgt id='9022'>0.21255E+02</wgt>
<wgt id='9023'>0.21206E+02</wgt>
<wgt id='9024'>0.21202E+02</wgt>
<wgt id='9025'>0.21271E+02</wgt>
<wgt id='9026'>0.21244E+02</wgt>
<wgt id='9027'>0.21211E+02</wgt>
<wgt id='9028'>0.21249E+02</wgt>
<wgt id='9029'>0.21251E+02</wgt>
<wgt id='9030'>0.21242E+02</wgt>
<wgt id='9031'>0.21229E+02</wgt>
<wgt id='9032'>0.21248E+02</wgt>
<wgt id='9033'>0.21261E+02</wgt>
<wgt id='9034'>0.21219E+02</wgt>
<wgt id='9035'>0.21268E+02</wgt>
<wgt id='9036'>0.21231E+02</wgt>
<wgt id='9037'>0.21252E+02</wgt>
<wgt id='9038'>0.21233E+02</wgt>
<wgt id='9039'>0.21236E+02</wgt>
<wgt id='9040'>0.21207E+02</wgt>
<wgt id='9041'>0.21223E+02</wgt>
<wgt id='9042'>0.21229E+02</wgt>
<wgt id='9043'>0.21217E+02</wgt>
<wgt id='9044'>0.21239E+02</wgt>
<wgt id='9045'>0.21229E+02</wgt>
<wgt id='9046'>0.21204E+02</wgt>
<wgt id='9047'>0.21222E+02</wgt>
<wgt id='9048'>0.21240E+02</wgt>
<wgt id='9049'>0.21223E+02</wgt>
<wgt id='9050'>0.21237E+02</wgt>
<wgt id='9051'>0.21240E+02</wgt>
<wgt id='9052'>0.21238E+02</wgt>
<wgt id='9053'>0.21236E+02</wgt>
<wgt id='9054'>0.21222E+02</wgt>
<wgt id='9055'>0.21229E+02</wgt>
<wgt id='9056'>0.21252E+02</wgt>
<wgt id='9057'>0.21231E+02</wgt>
<wgt id='9058'>0.21219E+02</wgt>
<wgt id='9059'>0.21224E+02</wgt>
<wgt id='9060'>0.21226E+02</wgt>
<wgt id='9061'>0.21236E+02</wgt>
<wgt id='9062'>0.21236E+02</wgt>
<wgt id='9063'>0.21242E+02</wgt>
<wgt id='9064'>0.21228E+02</wgt>
<wgt id='9065'>0.21233E+02</wgt>
<wgt id='9066'>0.21235E+02</wgt>
<wgt id='9067'>0.21240E+02</wgt>
<wgt id='9068'>0.21238E+02</wgt>
<wgt id='9069'>0.21244E+02</wgt>
<wgt id='9070'>0.21230E+02</wgt>
<wgt id='9071'>0.21245E+02</wgt>
<wgt id='9072'>0.21245E+02</wgt>
<wgt id='9073'>0.21228E+02</wgt>
<wgt id='9074'>0.21235E+02</wgt>
<wgt id='9075'>0.21231E+02</wgt>
<wgt id='9076'>0.21231E+02</wgt>
<wgt id='9077'>0.21236E+02</wgt>
<wgt id='9078'>0.21235E+02</wgt>
<wgt id='9079'>0.21230E+02</wgt>
<wgt id='9080'>0.21246E+02</wgt>
<wgt id='9081'>0.21231E+02</wgt>
<wgt id='9082'>0.21237E+02</wgt>
<wgt id='9083'>0.21227E+02</wgt>
<wgt id='9084'>0.21228E+02</wgt>
<wgt id='9085'>0.21228E+02</wgt>
<wgt id='9086'>0.21235E+02</wgt>
<wgt id='9087'>0.21221E+02</wgt>
<wgt id='9088'>0.21229E+02</wgt>
<wgt id='9089'>0.21229E+02</wgt>
<wgt id='9090'>0.21236E+02</wgt>
<wgt id='9091'>0.21231E+02</wgt>
<wgt id='9092'>0.21233E+02</wgt>
<wgt id='9093'>0.21230E+02</wgt>
<wgt id='9094'>0.21232E+02</wgt>
<wgt id='9095'>0.21235E+02</wgt>
<wgt id='9096'>0.21229E+02</wgt>
<wgt id='9097'>0.21234E+02</wgt>
<wgt id='9098'>0.21233E+02</wgt>
<wgt id='9099'>0.21228E+02</wgt>
<wgt id='9100'>0.21232E+02</wgt>
<wgt id='9101'>0.21022E+02</wgt>
<wgt id='9102'>0.21363E+02</wgt>
<wgt id='10000'>0.22316E+02</wgt>
<wgt id='10001'>0.22423E+02</wgt>
<wgt id='10002'>0.22336E+02</wgt>
<wgt id='10003'>0.22326E+02</wgt>
<wgt id='10004'>0.22427E+02</wgt>
<wgt id='10005'>0.23042E+02</wgt>
<wgt id='10006'>0.22326E+02</wgt>
<wgt id='10007'>0.22313E+02</wgt>
<wgt id='10008'>0.22342E+02</wgt>
<wgt id='10009'>0.22286E+02</wgt>
<wgt id='10010'>0.22314E+02</wgt>
<wgt id='10011'>0.22303E+02</wgt>
<wgt id='10012'>0.22282E+02</wgt>
<wgt id='10013'>0.22309E+02</wgt>
<wgt id='10014'>0.22332E+02</wgt>
<wgt id='10015'>0.22345E+02</wgt>
<wgt id='10016'>0.22336E+02</wgt>
<wgt id='10017'>0.22170E+02</wgt>
<wgt id='10018'>0.22334E+02</wgt>
<wgt id='10019'>0.22272E+02</wgt>
<wgt id='10020'>0.22334E+02</wgt>
<wgt id='10021'>0.22323E+02</wgt>
<wgt id='10022'>0.22316E+02</wgt>
<wgt id='10023'>0.22329E+02</wgt>
<wgt id='10024'>0.22323E+02</wgt>
<wgt id='10025'>0.22306E+02</wgt>
<wgt id='10026'>0.22303E+02</wgt>
<wgt id='10027'>0.22305E+02</wgt>
<wgt id='10028'>0.22323E+02</wgt>
<wgt id='10029'>0.22337E+02</wgt>
<wgt id='10030'>0.22307E+02</wgt>
<wgt id='10031'>0.22001E+02</wgt>
<wgt id='10032'>0.22562E+02</wgt>
<wgt id='11000'>0.21233E+02</wgt>
<wgt id='11001'>0.21279E+02</wgt>
<wgt id='11002'>0.21312E+02</wgt>
<wgt id='11003'>0.21209E+02</wgt>
<wgt id='11004'>0.21315E+02</wgt>
<wgt id='11005'>0.20914E+02</wgt>
<wgt id='11006'>0.21223E+02</wgt>
<wgt id='11007'>0.21185E+02</wgt>
<wgt id='11008'>0.21186E+02</wgt>
<wgt id='11009'>0.21119E+02</wgt>
<wgt id='11010'>0.21282E+02</wgt>
<wgt id='11011'>0.21096E+02</wgt>
<wgt id='11012'>0.21255E+02</wgt>
<wgt id='11013'>0.21323E+02</wgt>
<wgt id='11014'>0.21157E+02</wgt>
<wgt id='11015'>0.21202E+02</wgt>
<wgt id='11016'>0.21208E+02</wgt>
<wgt id='11017'>0.21430E+02</wgt>
<wgt id='11018'>0.21237E+02</wgt>
<wgt id='11019'>0.21227E+02</wgt>
<wgt id='11020'>0.21255E+02</wgt>
<wgt id='11021'>0.21315E+02</wgt>
<wgt id='11022'>0.21708E+02</wgt>
<wgt id='11023'>0.21219E+02</wgt>
<wgt id='11024'>0.21209E+02</wgt>
<wgt id='11025'>0.21174E+02</wgt>
<wgt id='11026'>0.21230E+02</wgt>
<wgt id='11027'>0.21232E+02</wgt>
<wgt id='11028'>0.21217E+02</wgt>
<wgt id='11029'>0.21207E+02</wgt>
<wgt id='11030'>0.21237E+02</wgt>
<wgt id='11031'>0.21022E+02</wgt>
<wgt id='11032'>0.21363E+02</wgt>
<wgt id='12000'>0.23876E+02</wgt>
<wgt id='12001'>0.23841E+02</wgt>
<wgt id='12002'>0.23911E+02</wgt>
<wgt id='12003'>0.23940E+02</wgt>
<wgt id='12004'>0.23812E+02</wgt>
<wgt id='12005'>0.23918E+02</wgt>
<wgt id='12006'>0.23835E+02</wgt>
<wgt id='12007'>0.23946E+02</wgt>
<wgt id='12008'>0.23808E+02</wgt>
<wgt id='12009'>0.23918E+02</wgt>
<wgt id='12010'>0.23835E+02</wgt>
<wgt id='12011'>0.23846E+02</wgt>
<wgt id='12012'>0.23910E+02</wgt>
<wgt id='12013'>0.23775E+02</wgt>
<wgt id='12014'>0.23978E+02</wgt>
<wgt id='12015'>0.23874E+02</wgt>
<wgt id='12016'>0.23842E+02</wgt>
<wgt id='12017'>0.23946E+02</wgt>
<wgt id='12018'>0.23795E+02</wgt>
<wgt id='12019'>0.23777E+02</wgt>
<wgt id='12020'>0.23972E+02</wgt>
<wgt id='12021'>0.23984E+02</wgt>
<wgt id='12022'>0.23739E+02</wgt>
<wgt id='12023'>0.23794E+02</wgt>
<wgt id='12024'>0.23831E+02</wgt>
<wgt id='12025'>0.23966E+02</wgt>
<wgt id='12026'>0.23822E+02</wgt>
<wgt id='12027'>0.23812E+02</wgt>
<wgt id='12028'>0.23962E+02</wgt>
<wgt id='12050'>0.23876E+02</wgt>
<wgt id='12051'>0.23851E+02</wgt>
<wgt id='12052'>0.23896E+02</wgt>
<wgt id='12053'>0.23846E+02</wgt>
<wgt id='12054'>0.23890E+02</wgt>
<wgt id='12055'>0.23949E+02</wgt>
<wgt id='12056'>0.23645E+02</wgt>
<wgt id='12057'>0.23769E+02</wgt>
<wgt id='12058'>0.23974E+02</wgt>
<wgt id='12059'>0.23804E+02</wgt>
<wgt id='12060'>0.23953E+02</wgt>
<wgt id='12061'>0.23891E+02</wgt>
<wgt id='12062'>0.23922E+02</wgt>
<wgt id='12063'>0.23627E+02</wgt>
<wgt id='13000'>0.21387E+02</wgt>
<wgt id='13001'>0.21369E+02</wgt>
<wgt id='13002'>0.21401E+02</wgt>
<wgt id='13003'>0.21417E+02</wgt>
<wgt id='13004'>0.21354E+02</wgt>
<wgt id='13005'>0.21440E+02</wgt>
<wgt id='13006'>0.21331E+02</wgt>
<wgt id='13007'>0.21483E+02</wgt>
<wgt id='13008'>0.21290E+02</wgt>
<wgt id='13009'>0.21396E+02</wgt>
<wgt id='13010'>0.21376E+02</wgt>
<wgt id='13011'>0.21437E+02</wgt>
<wgt id='13012'>0.21334E+02</wgt>
<wgt id='13013'>0.21318E+02</wgt>
<wgt id='13014'>0.21453E+02</wgt>
<wgt id='13015'>0.21346E+02</wgt>
<wgt id='13016'>0.21406E+02</wgt>
<wgt id='13017'>0.21373E+02</wgt>
<wgt id='13018'>0.21393E+02</wgt>
<wgt id='13019'>0.21346E+02</wgt>
<wgt id='13020'>0.21423E+02</wgt>
<wgt id='13021'>0.21180E+02</wgt>
<wgt id='13022'>0.21559E+02</wgt>
<wgt id='13023'>0.21406E+02</wgt>
<wgt id='13024'>0.21361E+02</wgt>
<wgt id='13025'>0.21345E+02</wgt>
<wgt id='13026'>0.21369E+02</wgt>
<wgt id='13027'>0.21400E+02</wgt>
<wgt id='13028'>0.21395E+02</wgt>
<wgt id='13050'>0.21387E+02</wgt>
<wgt id='13051'>0.21389E+02</wgt>
<wgt id='13052'>0.21346E+02</wgt>
<wgt id='13053'>0.21381E+02</wgt>
<wgt id='13054'>0.21379E+02</wgt>
<wgt id='13055'>0.21376E+02</wgt>
<wgt id='13056'>0.21388E+02</wgt>
<wgt id='13057'>0.21303E+02</wgt>
<wgt id='13058'>0.21508E+02</wgt>
<wgt id='13059'>0.21315E+02</wgt>
<wgt id='13060'>0.21484E+02</wgt>
<wgt id='13061'>0.21324E+02</wgt>
<wgt id='13062'>0.21563E+02</wgt>
<wgt id='13063'>0.21222E+02</wgt>
<wgt id='14000'>0.22157E+02</wgt>
<wgt id='14001'>0.22153E+02</wgt>
<wgt id='14002'>0.22150E+02</wgt>
<wgt id='14003'>0.22147E+02</wgt>
<wgt id='14004'>0.22143E+02</wgt>
<wgt id='14005'>0.22140E+02</wgt>
<wgt id='14006'>0.22136E+02</wgt>
<wgt id='14007'>0.22133E+02</wgt>
<wgt id='14008'>0.22129E+02</wgt>
<wgt id='14009'>0.22126E+02</wgt>
<wgt id='14010'>0.22122E+02</wgt>
<wgt id='14011'>0.22119E+02</wgt>
<wgt id='14012'>0.22115E+02</wgt>
<wgt id='14013'>0.22112E+02</wgt>
<wgt id='14014'>0.22108E+02</wgt>
<wgt id='14015'>0.22105E+02</wgt>
<wgt id='14016'>0.22102E+02</wgt>
<wgt id='14017'>0.22098E+02</wgt>
<wgt id='14018'>0.22095E+02</wgt>
<wgt id='14019'>0.22091E+02</wgt>
<wgt id='14020'>0.22088E+02</wgt>
<wgt id='14021'>0.22084E+02</wgt>
<wgt id='14022'>0.22081E+02</wgt>
<wgt id='14023'>0.22077E+02</wgt>
<wgt id='14024'>0.22074E+02</wgt>
<wgt id='14025'>0.22070E+02</wgt>
<wgt id='14026'>0.22067E+02</wgt>
<wgt id='14027'>0.22063E+02</wgt>
<wgt id='14028'>0.22060E+02</wgt>
<wgt id='14029'>0.22057E+02</wgt>
<wgt id='14030'>0.22053E+02</wgt>
<wgt id='15000'>0.20979E+02</wgt>
<wgt id='15001'>0.21018E+02</wgt>
<wgt id='15002'>0.21102E+02</wgt>
<wgt id='15003'>0.20766E+02</wgt>
<wgt id='15004'>0.20928E+02</wgt>
<wgt id='15005'>0.21099E+02</wgt>
<wgt id='15006'>0.20903E+02</wgt>
<wgt id='15007'>0.20976E+02</wgt>
<wgt id='15008'>0.21023E+02</wgt>
<wgt id='15009'>0.20964E+02</wgt>
<wgt id='15010'>0.20946E+02</wgt>
<wgt id='15011'>0.21232E+02</wgt>
<wgt id='15012'>0.20671E+02</wgt>
<wgt id='15013'>0.20661E+02</wgt>
<wgt id='15014'>0.20691E+02</wgt>
<wgt id='15015'>0.20948E+02</wgt>
<wgt id='15016'>0.21057E+02</wgt>
<wgt id='15017'>0.21010E+02</wgt>
<wgt id='15018'>0.20985E+02</wgt>
<wgt id='15019'>0.20959E+02</wgt>
<wgt id='15020'>0.21063E+02</wgt>
<wgt id='15021'>0.20960E+02</wgt>
<wgt id='15022'>0.21001E+02</wgt>
<wgt id='15023'>0.20951E+02</wgt>
<wgt id='15024'>0.20947E+02</wgt>
<wgt id='15025'>0.21015E+02</wgt>
<wgt id='15026'>0.20989E+02</wgt>
<wgt id='15027'>0.20958E+02</wgt>
<wgt id='15028'>0.20996E+02</wgt>
<wgt id='15029'>0.20996E+02</wgt>
<wgt id='15030'>0.20988E+02</wgt>
<wgt id='15031'>0.20976E+02</wgt>
<wgt id='15032'>0.20993E+02</wgt>
<wgt id='15033'>0.21006E+02</wgt>
<wgt id='15034'>0.20965E+02</wgt>
<wgt id='15035'>0.21014E+02</wgt>
<wgt id='15036'>0.20977E+02</wgt>
<wgt id='15037'>0.20998E+02</wgt>
<wgt id='15038'>0.20979E+02</wgt>
<wgt id='15039'>0.20981E+02</wgt>
<wgt id='15040'>0.20953E+02</wgt>
<wgt id='15041'>0.20969E+02</wgt>
<wgt id='15042'>0.20974E+02</wgt>
<wgt id='15043'>0.20963E+02</wgt>
<wgt id='15044'>0.20985E+02</wgt>
<wgt id='15045'>0.20974E+02</wgt>
<wgt id='15046'>0.20950E+02</wgt>
<wgt id='15047'>0.20967E+02</wgt>
<wgt id='15048'>0.20986E+02</wgt>
<wgt id='15049'>0.20968E+02</wgt>
<wgt id='15050'>0.20983E+02</wgt>
<wgt id='15051'>0.20986E+02</wgt>
<wgt id='15052'>0.20983E+02</wgt>
<wgt id='15053'>0.20982E+02</wgt>
<wgt id='15054'>0.20968E+02</wgt>
<wgt id='15055'>0.20975E+02</wgt>
<wgt id='15056'>0.20997E+02</wgt>
<wgt id='15057'>0.20977E+02</wgt>
<wgt id='15058'>0.20966E+02</wgt>
<wgt id='15059'>0.20970E+02</wgt>
<wgt id='15060'>0.20972E+02</wgt>
<wgt id='15061'>0.20982E+02</wgt>
<wgt id='15062'>0.20982E+02</wgt>
<wgt id='15063'>0.20987E+02</wgt>
<wgt id='15064'>0.20974E+02</wgt>
<wgt id='15065'>0.20978E+02</wgt>
<wgt id='15066'>0.20980E+02</wgt>
<wgt id='15067'>0.20985E+02</wgt>
<wgt id='15068'>0.20984E+02</wgt>
<wgt id='15069'>0.20990E+02</wgt>
<wgt id='15070'>0.20976E+02</wgt>
<wgt id='15071'>0.20991E+02</wgt>
<wgt id='15072'>0.20991E+02</wgt>
<wgt id='15073'>0.20973E+02</wgt>
<wgt id='15074'>0.20981E+02</wgt>
<wgt id='15075'>0.20977E+02</wgt>
<wgt id='15076'>0.20977E+02</wgt>
<wgt id='15077'>0.20982E+02</wgt>
<wgt id='15078'>0.20981E+02</wgt>
<wgt id='15079'>0.20976E+02</wgt>
<wgt id='15080'>0.20992E+02</wgt>
<wgt id='15081'>0.20977E+02</wgt>
<wgt id='15082'>0.20983E+02</wgt>
<wgt id='15083'>0.20972E+02</wgt>
<wgt id='15084'>0.20973E+02</wgt>
<wgt id='15085'>0.20974E+02</wgt>
<wgt id='15086'>0.20981E+02</wgt>
<wgt id='15087'>0.20967E+02</wgt>
<wgt id='15088'>0.20975E+02</wgt>
<wgt id='15089'>0.20974E+02</wgt>
<wgt id='15090'>0.20982E+02</wgt>
<wgt id='15091'>0.20977E+02</wgt>
<wgt id='15092'>0.20978E+02</wgt>
<wgt id='15093'>0.20975E+02</wgt>
<wgt id='15094'>0.20977E+02</wgt>
<wgt id='15095'>0.20981E+02</wgt>
<wgt id='15096'>0.20975E+02</wgt>
<wgt id='15097'>0.20980E+02</wgt>
<wgt id='15098'>0.20979E+02</wgt>
<wgt id='15099'>0.20974E+02</wgt>
<wgt id='15100'>0.20978E+02</wgt>
<wgt id='15101'>0.20978E+02</wgt>
<wgt id='15102'>0.20977E+02</wgt>
<wgt id='15103'>0.20979E+02</wgt>
<wgt id='15104'>0.20979E+02</wgt>
<wgt id='15105'>0.20979E+02</wgt>
<wgt id='15106'>0.20979E+02</wgt>
<wgt id='15107'>0.20978E+02</wgt>
<wgt id='1500'>0.22038E+02</wgt>
<wgt id='1501'>0.19887E+02</wgt>
<wgt id='1502'>0.22172E+02</wgt>
<wgt id='1503'>0.21801E+02</wgt>
<wgt id='1504'>0.21798E+02</wgt>
<wgt id='1505'>0.18939E+02</wgt>
<wgt id='1506'>0.22015E+02</wgt>
<wgt id='1507'>0.22440E+02</wgt>
<wgt id='1508'>0.21863E+02</wgt>
<wgt id='1509'>0.21965E+02</wgt>
<wgt id='1510'>0.21370E+02</wgt>
<wgt id='1511'>0.21767E+02</wgt>
<wgt id='1512'>0.22453E+02</wgt>
<wgt id='1513'>0.22410E+02</wgt>
<wgt id='1514'>0.21360E+02</wgt>
<wgt id='1515'>0.21940E+02</wgt>
<wgt id='1516'>0.22486E+02</wgt>
<wgt id='1517'>0.21621E+02</wgt>
<wgt id='1518'>0.21792E+02</wgt>
<wgt id='1519'>0.22276E+02</wgt>
<wgt id='1520'>0.22262E+02</wgt>
<wgt id='1521'>0.22105E+02</wgt>
<wgt id='1522'>0.21922E+02</wgt>
<wgt id='1523'>0.23798E+02</wgt>
<wgt id='1524'>0.21782E+02</wgt>
<wgt id='1525'>0.22456E+02</wgt>
<wgt id='1526'>0.21534E+02</wgt>
<wgt id='1527'>0.21837E+02</wgt>
<wgt id='1528'>0.21948E+02</wgt>
<wgt id='1529'>0.21618E+02</wgt>
<wgt id='1530'>0.22428E+02</wgt>
<wgt id='1531'>0.21919E+02</wgt>
<wgt id='1532'>0.21413E+02</wgt>
<wgt id='1533'>0.22781E+02</wgt>
<wgt id='1534'>0.22225E+02</wgt>
<wgt id='1535'>0.22737E+02</wgt>
<wgt id='1536'>0.22905E+02</wgt>
<wgt id='1537'>0.22254E+02</wgt>
<wgt id='1538'>0.21735E+02</wgt>
<wgt id='1539'>0.21127E+02</wgt>
<wgt id='1540'>0.22468E+02</wgt>
<wgt id='1541'>0.21930E+02</wgt>
<wgt id='1542'>0.22499E+02</wgt>
<wgt id='1543'>0.22365E+02</wgt>
<wgt id='1544'>0.21823E+02</wgt>
<wgt id='1545'>0.22588E+02</wgt>
<wgt id='1546'>0.22147E+02</wgt>
<wgt id='1547'>0.21667E+02</wgt>
<wgt id='1548'>0.21562E+02</wgt>
<wgt id='1549'>0.22377E+02</wgt>
<wgt id='1550'>0.22170E+02</wgt>
<wgt id='1551'>0.22101E+02</wgt>
<wgt id='1552'>0.22022E+02</wgt>
<wgt id='1553'>0.22489E+02</wgt>
<wgt id='1554'>0.22005E+02</wgt>
<wgt id='1555'>0.22211E+02</wgt>
<wgt id='1556'>0.21348E+02</wgt>
<wgt id='1557'>0.23159E+02</wgt>
<wgt id='1558'>0.21894E+02</wgt>
<wgt id='1559'>0.22258E+02</wgt>
<wgt id='1560'>0.21993E+02</wgt>
<wgt id='1561'>0.22406E+02</wgt>
<wgt id='1562'>0.22050E+02</wgt>
<wgt id='1563'>0.22607E+02</wgt>
<wgt id='1564'>0.21767E+02</wgt>
<wgt id='1565'>0.22468E+02</wgt>
<wgt id='1566'>0.22116E+02</wgt>
<wgt id='1567'>0.22985E+02</wgt>
<wgt id='1568'>0.21728E+02</wgt>
<wgt id='1569'>0.21540E+02</wgt>
<wgt id='1570'>0.22218E+02</wgt>
<wgt id='1571'>0.22795E+02</wgt>
<wgt id='1572'>0.21803E+02</wgt>
<wgt id='1573'>0.20139E+02</wgt>
<wgt id='1574'>0.22216E+02</wgt>
<wgt id='1575'>0.21813E+02</wgt>
<wgt id='1576'>0.21400E+02</wgt>
<wgt id='1577'>0.22234E+02</wgt>
<wgt id='1578'>0.23001E+02</wgt>
<wgt id='1579'>0.21981E+02</wgt>
<wgt id='1580'>0.22246E+02</wgt>
<wgt id='1581'>0.22188E+02</wgt>
<wgt id='1582'>0.21817E+02</wgt>
<wgt id='1583'>0.22017E+02</wgt>
<wgt id='1584'>0.22210E+02</wgt>
<wgt id='1585'>0.21327E+02</wgt>
<wgt id='1586'>0.22003E+02</wgt>
<wgt id='1587'>0.21949E+02</wgt>
<wgt id='1588'>0.22124E+02</wgt>
<wgt id='1589'>0.22443E+02</wgt>
<wgt id='1590'>0.21928E+02</wgt>
<wgt id='1591'>0.21312E+02</wgt>
<wgt id='1592'>0.22783E+02</wgt>
<wgt id='1593'>0.21826E+02</wgt>
<wgt id='1594'>0.22611E+02</wgt>
<wgt id='1595'>0.21660E+02</wgt>
<wgt id='1596'>0.22435E+02</wgt>
<wgt id='1597'>0.22226E+02</wgt>
<wgt id='1598'>0.23160E+02</wgt>
<wgt id='1599'>0.22770E+02</wgt>
<wgt id='1600'>0.21747E+02</wgt>
<wgt id='1601'>0.21743E+02</wgt>
<wgt id='1602'>0.22126E+02</wgt>
<wgt id='1700'>0.21312E+02</wgt>
<wgt id='1800'>0.26213E+02</wgt>
<wgt id='1850'>0.30399E+02</wgt>
<wgt id='1900'>0.25428E+02</wgt>
<wgt id='1950'>0.29191E+02</wgt>
</rwgt>
</event>
<event>
      4   9999  2.16956E+01  1.03912E+02 -1.00000E+00  1.21516E-01
       2    -1     0     0   502     0  0.000000000E+00  0.000000000E+00  3.048751913E+03  3.048751913E+03  0.000000000E+00  0.00000E+00  9.000E+00
      21    -1     0     0   501   502  0.000000000E+00  0.000000000E+00 -4.322694803E+01  4.322694803E+01  0.000000000E+00  0.00000E+00  9.000E+00
      25     1     1     2     0     0 -4.552722795E+00 -1.038123526E+02  1.138967102E+02  1.984841408E+02  1.250030469E+02  0.00000E+00  9.000E+00
       2     1     1     2   501     0  4.552722795E+00  1.038123526E+02  2.891628255E+03  2.893494720E+03  0.000000000E+00  0.00000E+00  9.000E+00
#rwgt            2          18   1.1439517349321366                1        7901           0
<rwgt>
<wgt id='1001'>0.21696E+02</wgt>
<wgt id='1002'>0.20287E+02</wgt>
<wgt id='1003'>0.23140E+02</wgt>
<wgt id='1004'>0.16381E+02</wgt>
<wgt id='1005'>0.15317E+02</wgt>
<wgt id='1006'>0.17471E+02</wgt>
<wgt id='1007'>0.29632E+02</wgt>
<wgt id='1008'>0.27709E+02</wgt>
<wgt id='1009'>0.31605E+02</wgt>
<wgt id='2000'>0.21696E+02</wgt>
<wgt id='2001'>0.21628E+02</wgt>
<wgt id='2002'>0.21824E+02</wgt>
<wgt id='2003'>0.21809E+02</wgt>
<wgt id='2004'>0.21673E+02</wgt>
<wgt id='2005'>0.21682E+02</wgt>
<wgt id='2006'>0.21728E+02</wgt>
<wgt id='2007'>0.21603E+02</wgt>
<wgt id='2008'>0.21749E+02</wgt>
<wgt id='2009'>0.21734E+02</wgt>
<wgt id='2010'>0.21710E+02</wgt>
<wgt id='2011'>0.21760E+02</wgt>
<wgt id='2012'>0.21722E+02</wgt>
<wgt id='2013'>0.21815E+02</wgt>
<wgt id='2014'>0.21786E+02</wgt>
<wgt id='2015'>0.21635E+02</wgt>
<wgt id='2016'>0.21673E+02</wgt>
<wgt id='2017'>0.21717E+02</wgt>
<wgt id='2018'>0.21723E+02</wgt>
<wgt id='2019'>0.21714E+02</wgt>
<wgt id='2020'>0.21681E+02</wgt>
<wgt id='2021'>0.21666E+02</wgt>
<wgt id='2022'>0.21707E+02</wgt>
<wgt id='2023'>0.21652E+02</wgt>
<wgt id='2024'>0.21749E+02</wgt>
<wgt id='2025'>0.21694E+02</wgt>
<wgt id='2026'>0.21655E+02</wgt>
<wgt id='2027'>0.21769E+02</wgt>
<wgt id='2028'>0.21728E+02</wgt>
<wgt id='2029'>0.21462E+02</wgt>
<wgt id='2030'>0.21639E+02</wgt>
<wgt id='2031'>0.21644E+02</wgt>
<wgt id='2032'>0.21626E+02</wgt>
<wgt id='2033'>0.21732E+02</wgt>
<wgt id='2034'>0.21687E+02</wgt>
<wgt id='2035'>0.21680E+02</wgt>
<wgt id='2036'>0.21692E+02</wgt>
<wgt id='2037'>0.21731E+02</wgt>
<wgt id='2038'>0.21636E+02</wgt>
<wgt id='2039'>0.21696E+02</wgt>
<wgt id='2040'>0.21725E+02</wgt>
<wgt id='2041'>0.21701E+02</wgt>
<wgt id='2042'>0.21656E+02</wgt>
<wgt id='2043'>0.21729E+02</wgt>
<wgt id='2044'>0.21682E+02</wgt>
<wgt id='2045'>0.21749E+02</wgt>
<wgt id='2046'>0.21709E+02</wgt>
<wgt id='2047'>0.21751E+02</wgt>
<wgt id='2048'>0.21728E+02</wgt>
<wgt id='2049'>0.21716E+02</wgt>
<wgt id='2050'>0.21867E+02</wgt>
<wgt id='2051'>0.21832E+02</wgt>
<wgt id='2052'>0.21675E+02</wgt>
<wgt id='2053'>0.21737E+02</wgt>
<wgt id='2054'>0.21813E+02</wgt>
<wgt id='2055'>0.21727E+02</wgt>
<wgt id='2056'>0.21719E+02</wgt>
<wgt id='2057'>0.21748E+02</wgt>
<wgt id='2058'>0.21905E+02</wgt>
<wgt id='2059'>0.21834E+02</wgt>
<wgt id='2060'>0.21743E+02</wgt>
<wgt id='2061'>0.21761E+02</wgt>
<wgt id='2062'>0.21662E+02</wgt>
<wgt id='2063'>0.21717E+02</wgt>
<wgt id='2064'>0.21796E+02</wgt>
<wgt id='2065'>0.21754E+02</wgt>
<wgt id='2066'>0.21650E+02</wgt>
<wgt id='2067'>0.21733E+02</wgt>
<wgt id='2068'>0.21643E+02</wgt>
<wgt id='2069'>0.21693E+02</wgt>
<wgt id='2070'>0.21642E+02</wgt>
<wgt id='2071'>0.21741E+02</wgt>
<wgt id='2072'>0.21678E+02</wgt>
<wgt id='2073'>0.21644E+02</wgt>
<wgt id='2074'>0.21707E+02</wgt>
<wgt id='2075'>0.21659E+02</wgt>
<wgt id='2076'>0.21751E+02</wgt>
<wgt id='2077'>0.21695E+02</wgt>
<wgt id='2078'>0.21785E+02</wgt>
<wgt id='2079'>0.21755E+02</wgt>
<wgt id='2080'>0.21717E+02</wgt>
<wgt id='2081'>0.21628E+02</wgt>
<wgt id='2082'>0.21670E+02</wgt>
<wgt id='2083'>0.21757E+02</wgt>
<wgt id='2084'>0.21738E+02</wgt>
<wgt id='2085'>0.21709E+02</wgt>
<wgt id='2086'>0.21660E+02</wgt>
<wgt id='2087'>0.21754E+02</wgt>
<wgt id='2088'>0.21603E+02</wgt>
<wgt id='2089'>0.21703E+02</wgt>
<wgt id='2090'>0.21670E+02</wgt>
<wgt id='2091'>0.21711E+02</wgt>
<wgt id='2092'>0.21659E+02</wgt>
<wgt id='2093'>0.21733E+02</wgt>
<wgt id='2094'>0.21739E+02</wgt>
<wgt id='2095'>0.21677E+02</wgt>
<wgt id='2096'>0.21704E+02</wgt>
<wgt id='2097'>0.21723E+02</wgt>
<wgt id='2098'>0.21689E+02</wgt>
<wgt id='2099'>0.21725E+02</wgt>
<wgt id='2100'>0.21698E+02</wgt>
<wgt id='2101'>0.20876E+02</wgt>
<wgt id='2102'>0.22496E+02</wgt>
<wgt id='2104'>0.17695E+02</wgt>
<wgt id='2105'>0.18368E+02</wgt>
<wgt id='2106'>0.19287E+02</wgt>
<wgt id='2107'>0.20114E+02</wgt>
<wgt id='2108'>0.21267E+02</wgt>
<wgt id='2109'>0.22058E+02</wgt>
<wgt id='2110'>0.23279E+02</wgt>
<wgt id='2111'>0.24003E+02</wgt>
<wgt id='3000'>0.22232E+02</wgt>
<wgt id='3001'>0.22369E+02</wgt>
<wgt id='3002'>0.22093E+02</wgt>
<wgt id='3003'>0.22339E+02</wgt>
<wgt id='3004'>0.22163E+02</wgt>
<wgt id='3005'>0.22313E+02</wgt>
<wgt id='3006'>0.22336E+02</wgt>
<wgt id='3007'>0.22257E+02</wgt>
<wgt id='3008'>0.22171E+02</wgt>
<wgt id='3009'>0.22197E+02</wgt>
<wgt id='3010'>0.22224E+02</wgt>
<wgt id='3011'>0.22268E+02</wgt>
<wgt id='3012'>0.22220E+02</wgt>
<wgt id='3013'>0.22158E+02</wgt>
<wgt id='3014'>0.22324E+02</wgt>
<wgt id='3015'>0.22233E+02</wgt>
<wgt id='3016'>0.22226E+02</wgt>
<wgt id='3017'>0.22242E+02</wgt>
<wgt id='3018'>0.22165E+02</wgt>
<wgt id='3019'>0.22154E+02</wgt>
<wgt id='3020'>0.22149E+02</wgt>
<wgt id='3021'>0.22237E+02</wgt>
<wgt id='3022'>0.22229E+02</wgt>
<wgt id='3023'>0.22296E+02</wgt>
<wgt id='3024'>0.22222E+02</wgt>
<wgt id='3025'>0.22190E+02</wgt>
<wgt id='3026'>0.22230E+02</wgt>
<wgt id='3027'>0.22217E+02</wgt>
<wgt id='3028'>0.22337E+02</wgt>
<wgt id='3029'>0.22385E+02</wgt>
<wgt id='3030'>0.22002E+02</wgt>
<wgt id='3031'>0.22123E+02</wgt>
<wgt id='3032'>0.22265E+02</wgt>
<wgt id='3033'>0.22245E+02</wgt>
<wgt id='3034'>0.22223E+02</wgt>
<wgt id='3035'>0.22254E+02</wgt>
<wgt id='3036'>0.22213E+02</wgt>
<wgt id='3037'>0.22195E+02</wgt>
<wgt id='3038'>0.22207E+02</wgt>
<wgt id='3039'>0.22206E+02</wgt>
<wgt id='3040'>0.22173E+02</wgt>
<wgt id='3041'>0.22313E+02</wgt>
<wgt id='3042'>0.22225E+02</wgt>
<wgt id='3043'>0.22193E+02</wgt>
<wgt id='3044'>0.22220E+02</wgt>
<wgt id='3045'>0.22259E+02</wgt>
<wgt id='3046'>0.22224E+02</wgt>
<wgt id='3047'>0.22192E+02</wgt>
<wgt id='3048'>0.22210E+02</wgt>
<wgt id='3049'>0.22227E+02</wgt>
<wgt id='3050'>0.22153E+02</wgt>
<wgt id='3051'>0.22356E+02</wgt>
<wgt id='3052'>0.22255E+02</wgt>
<wgt id='3053'>0.22334E+02</wgt>
<wgt id='3054'>0.22242E+02</wgt>
<wgt id='3055'>0.22212E+02</wgt>
<wgt id='3056'>0.22363E+02</wgt>
<wgt id='3057'>0.22081E+02</wgt>
<wgt id='3058'>0.22200E+02</wgt>
<wgt id='3059'>0.22535E+02</wgt>
<wgt id='3060'>0.22168E+02</wgt>
<wgt id='3061'>0.22192E+02</wgt>
<wgt id='3062'>0.22232E+02</wgt>
<wgt id='3063'>0.22171E+02</wgt>
<wgt id='3064'>0.22206E+02</wgt>
<wgt id='3065'>0.22203E+02</wgt>
<wgt id='3066'>0.22177E+02</wgt>
<wgt id='3067'>0.22308E+02</wgt>
<wgt id='3068'>0.22245E+02</wgt>
<wgt id='3069'>0.22214E+02</wgt>
<wgt id='3070'>0.22364E+02</wgt>
<wgt id='3071'>0.22219E+02</wgt>
<wgt id='3072'>0.22254E+02</wgt>
<wgt id='3073'>0.22280E+02</wgt>
<wgt id='3074'>0.22269E+02</wgt>
<wgt id='3075'>0.22217E+02</wgt>
<wgt id='3076'>0.22293E+02</wgt>
<wgt id='3077'>0.22235E+02</wgt>
<wgt id='3078'>0.22280E+02</wgt>
<wgt id='3079'>0.22193E+02</wgt>
<wgt id='3080'>0.22152E+02</wgt>
<wgt id='3081'>0.22260E+02</wgt>
<wgt id='3082'>0.22226E+02</wgt>
<wgt id='3083'>0.22193E+02</wgt>
<wgt id='3084'>0.22163E+02</wgt>
<wgt id='3085'>0.22258E+02</wgt>
<wgt id='3086'>0.22265E+02</wgt>
<wgt id='3087'>0.22235E+02</wgt>
<wgt id='3088'>0.22310E+02</wgt>
<wgt id='3089'>0.22195E+02</wgt>
<wgt id='3090'>0.22251E+02</wgt>
<wgt id='3091'>0.22224E+02</wgt>
<wgt id='3092'>0.22321E+02</wgt>
<wgt id='3093'>0.22278E+02</wgt>
<wgt id='3094'>0.22202E+02</wgt>
<wgt id='3095'>0.22218E+02</wgt>
<wgt id='3096'>0.22276E+02</wgt>
<wgt id='3097'>0.22201E+02</wgt>
<wgt id='3098'>0.22203E+02</wgt>
<wgt id='3099'>0.22215E+02</wgt>
<wgt id='3100'>0.22278E+02</wgt>
<wgt id='3101'>0.21462E+02</wgt>
<wgt id='3102'>0.23108E+02</wgt>
<wgt id='5000'>0.21462E+02</wgt>
<wgt id='5001'>0.21625E+02</wgt>
<wgt id='5002'>0.21587E+02</wgt>
<wgt id='5003'>0.21393E+02</wgt>
<wgt id='5004'>0.21505E+02</wgt>
<wgt id='5005'>0.21122E+02</wgt>
<wgt id='5006'>0.21745E+02</wgt>
<wgt id='5007'>0.21395E+02</wgt>
<wgt id='5008'>0.21878E+02</wgt>
<wgt id='5009'>0.21846E+02</wgt>
<wgt id='5010'>0.21229E+02</wgt>
<wgt id='5011'>0.21452E+02</wgt>
<wgt id='5012'>0.21433E+02</wgt>
<wgt id='5013'>0.21393E+02</wgt>
<wgt id='5014'>0.21207E+02</wgt>
<wgt id='5015'>0.21602E+02</wgt>
<wgt id='5016'>0.21091E+02</wgt>
<wgt id='5017'>0.21250E+02</wgt>
<wgt id='5018'>0.21639E+02</wgt>
<wgt id='5019'>0.21102E+02</wgt>
<wgt id='5020'>0.21755E+02</wgt>
<wgt id='5021'>0.21510E+02</wgt>
<wgt id='5022'>0.21428E+02</wgt>
<wgt id='5023'>0.21703E+02</wgt>
<wgt id='5024'>0.21187E+02</wgt>
<wgt id='5025'>0.21183E+02</wgt>
<wgt id='5026'>0.21692E+02</wgt>
<wgt id='5027'>0.21536E+02</wgt>
<wgt id='5028'>0.21328E+02</wgt>
<wgt id='5029'>0.21190E+02</wgt>
<wgt id='5030'>0.21624E+02</wgt>
<wgt id='5031'>0.21262E+02</wgt>
<wgt id='5032'>0.21757E+02</wgt>
<wgt id='5033'>0.21157E+02</wgt>
<wgt id='5034'>0.21739E+02</wgt>
<wgt id='5035'>0.21431E+02</wgt>
<wgt id='5036'>0.21489E+02</wgt>
<wgt id='5037'>0.21786E+02</wgt>
<wgt id='5038'>0.21076E+02</wgt>
<wgt id='5039'>0.21628E+02</wgt>
<wgt id='5040'>0.21375E+02</wgt>
<wgt id='5041'>0.21345E+02</wgt>
<wgt id='5042'>0.21461E+02</wgt>
<wgt id='5043'>0.21485E+02</wgt>
<wgt id='5044'>0.21223E+02</wgt>
<wgt id='5045'>0.21841E+02</wgt>
<wgt id='5046'>0.21344E+02</wgt>
<wgt id='5047'>0.21271E+02</wgt>
<wgt id='5048'>0.21527E+02</wgt>
<wgt id='5049'>0.21372E+02</wgt>
<wgt id='5050'>0.21026E+02</wgt>
<wgt id='5051'>0.21522E+02</wgt>
<wgt id='5052'>0.21405E+02</wgt>
<wgt id='5053'>0.21656E+02</wgt>
<wgt id='5054'>0.22019E+02</wgt>
<wgt id='5055'>0.21263E+02</wgt>
<wgt id='5056'>0.21556E+02</wgt>
<wgt id='5060'>0.20976E+02</wgt>
<wgt id='5070'>0.21876E+02</wgt>
<wgt id='4000'>0.22924E+02</wgt>
<wgt id='4001'>0.22870E+02</wgt>
<wgt id='4002'>0.23115E+02</wgt>
<wgt id='4003'>0.23223E+02</wgt>
<wgt id='4004'>0.22821E+02</wgt>
<wgt id='4005'>0.22534E+02</wgt>
<wgt id='4006'>0.22820E+02</wgt>
<wgt id='4007'>0.22834E+02</wgt>
<wgt id='4008'>0.22949E+02</wgt>
<wgt id='4009'>0.22640E+02</wgt>
<wgt id='4010'>0.22967E+02</wgt>
<wgt id='4011'>0.23355E+02</wgt>
<wgt id='4012'>0.22533E+02</wgt>
<wgt id='4013'>0.22180E+02</wgt>
<wgt id='4014'>0.23435E+02</wgt>
<wgt id='4015'>0.22846E+02</wgt>
<wgt id='4016'>0.22957E+02</wgt>
<wgt id='4017'>0.23037E+02</wgt>
<wgt id='4018'>0.22791E+02</wgt>
<wgt id='4019'>0.22596E+02</wgt>
<wgt id='4020'>0.23221E+02</wgt>
<wgt id='4021'>0.23058E+02</wgt>
<wgt id='4022'>0.22634E+02</wgt>
<wgt id='4023'>0.22553E+02</wgt>
<wgt id='4024'>0.23310E+02</wgt>
<wgt id='4025'>0.22736E+02</wgt>
<wgt id='4026'>0.23097E+02</wgt>
<wgt id='4027'>0.22928E+02</wgt>
<wgt id='4028'>0.22910E+02</wgt>
<wgt id='4029'>0.22820E+02</wgt>
<wgt id='4030'>0.22958E+02</wgt>
<wgt id='4031'>0.22948E+02</wgt>
<wgt id='4032'>0.22890E+02</wgt>
<wgt id='4033'>0.22950E+02</wgt>
<wgt id='4034'>0.22854E+02</wgt>
<wgt id='4035'>0.23062E+02</wgt>
<wgt id='4036'>0.22762E+02</wgt>
<wgt id='4037'>0.23011E+02</wgt>
<wgt id='4038'>0.22805E+02</wgt>
<wgt id='4039'>0.22872E+02</wgt>
<wgt id='4040'>0.22936E+02</wgt>
<wgt id='4041'>0.23018E+02</wgt>
<wgt id='4042'>0.22817E+02</wgt>
<wgt id='4043'>0.22792E+02</wgt>
<wgt id='4044'>0.22995E+02</wgt>
<wgt id='4045'>0.22724E+02</wgt>
<wgt id='4046'>0.22927E+02</wgt>
<wgt id='4047'>0.22539E+02</wgt>
<wgt id='4048'>0.23392E+02</wgt>
<wgt id='4049'>0.22958E+02</wgt>
<wgt id='4050'>0.22894E+02</wgt>
<wgt id='4051'>0.23145E+02</wgt>
<wgt id='4052'>0.23117E+02</wgt>
<wgt id='4053'>0.22613E+02</wgt>
<wgt id='4054'>0.22998E+02</wgt>
<wgt id='4055'>0.22751E+02</wgt>
<wgt id='4056'>0.23062E+02</wgt>
<wgt id='4060'>0.22291E+02</wgt>
<wgt id='4070'>0.23493E+02</wgt>
<wgt id='4080'>0.26657E+02</wgt>
<wgt id='6000'>0.22954E+02</wgt>
<wgt id='6001'>0.22958E+02</wgt>
<wgt id='6002'>0.22951E+02</wgt>
<wgt id='6003'>0.22957E+02</wgt>
<wgt id='6004'>0.22951E+02</wgt>
<wgt id='6005'>0.23018E+02</wgt>
<wgt id='6006'>0.22894E+02</wgt>
<wgt id='6007'>0.23112E+02</wgt>
<wgt id='6008'>0.22778E+02</wgt>
<wgt id='6009'>0.22874E+02</wgt>
<wgt id='6010'>0.23032E+02</wgt>
<wgt id='6011'>0.22921E+02</wgt>
<wgt id='6012'>0.23023E+02</wgt>
<wgt id='6013'>0.22924E+02</wgt>
<wgt id='6014'>0.23005E+02</wgt>
<wgt id='6015'>0.22909E+02</wgt>
<wgt id='6016'>0.22979E+02</wgt>
<wgt id='6017'>0.22887E+02</wgt>
<wgt id='6018'>0.23030E+02</wgt>
<wgt id='6019'>0.22981E+02</wgt>
<wgt id='6020'>0.22930E+02</wgt>
<wgt id='6021'>0.23053E+02</wgt>
<wgt id='6022'>0.22821E+02</wgt>
<wgt id='6023'>0.23112E+02</wgt>
<wgt id='6024'>0.22834E+02</wgt>
<wgt id='6025'>0.22851E+02</wgt>
<wgt id='6026'>0.23035E+02</wgt>
<wgt id='6027'>0.23018E+02</wgt>
<wgt id='6028'>0.22930E+02</wgt>
<wgt id='6029'>0.23090E+02</wgt>
<wgt id='6030'>0.22790E+02</wgt>
<wgt id='6031'>0.23135E+02</wgt>
<wgt id='6032'>0.22757E+02</wgt>
<wgt id='6033'>0.22933E+02</wgt>
<wgt id='6034'>0.22972E+02</wgt>
<wgt id='6035'>0.22916E+02</wgt>
<wgt id='6036'>0.23066E+02</wgt>
<wgt id='6037'>0.22945E+02</wgt>
<wgt id='6038'>0.22974E+02</wgt>
<wgt id='6039'>0.22963E+02</wgt>
<wgt id='6040'>0.22940E+02</wgt>
<wgt id='6041'>0.22919E+02</wgt>
<wgt id='6042'>0.22983E+02</wgt>
<wgt id='6043'>0.23022E+02</wgt>
<wgt id='6044'>0.22959E+02</wgt>
<wgt id='6045'>0.22948E+02</wgt>
<wgt id='6046'>0.22973E+02</wgt>
<wgt id='6047'>0.22878E+02</wgt>
<wgt id='6048'>0.22967E+02</wgt>
<wgt id='6049'>0.22948E+02</wgt>
<wgt id='6050'>0.22958E+02</wgt>
<wgt id='7000'>0.21553E+02</wgt>
<wgt id='7001'>0.21547E+02</wgt>
<wgt id='7002'>0.21560E+02</wgt>
<wgt id='7003'>0.21590E+02</wgt>
<wgt id='7004'>0.21515E+02</wgt>
<wgt id='7005'>0.21574E+02</wgt>
<wgt id='7006'>0.21545E+02</wgt>
<wgt id='7007'>0.21725E+02</wgt>
<wgt id='7008'>0.21381E+02</wgt>
<wgt id='7009'>0.21507E+02</wgt>
<wgt id='7010'>0.21595E+02</wgt>
<wgt id='7011'>0.21654E+02</wgt>
<wgt id='7012'>0.21509E+02</wgt>
<wgt id='7013'>0.21569E+02</wgt>
<wgt id='7014'>0.21532E+02</wgt>
<wgt id='7015'>0.21478E+02</wgt>
<wgt id='7016'>0.21633E+02</wgt>
<wgt id='7017'>0.21557E+02</wgt>
<wgt id='7018'>0.21549E+02</wgt>
<wgt id='7019'>0.21472E+02</wgt>
<wgt id='7020'>0.21662E+02</wgt>
<wgt id='7021'>0.21442E+02</wgt>
<wgt id='7022'>0.21629E+02</wgt>
<wgt id='7023'>0.21526E+02</wgt>
<wgt id='7024'>0.21572E+02</wgt>
<wgt id='7025'>0.21512E+02</wgt>
<wgt id='7026'>0.21639E+02</wgt>
<wgt id='7027'>0.21636E+02</wgt>
<wgt id='7028'>0.21501E+02</wgt>
<wgt id='7029'>0.21449E+02</wgt>
<wgt id='7030'>0.21834E+02</wgt>
<wgt id='7031'>0.21612E+02</wgt>
<wgt id='7032'>0.21430E+02</wgt>
<wgt id='7033'>0.21488E+02</wgt>
<wgt id='7034'>0.21679E+02</wgt>
<wgt id='7035'>0.21677E+02</wgt>
<wgt id='7036'>0.21496E+02</wgt>
<wgt id='7037'>0.21560E+02</wgt>
<wgt id='7038'>0.21554E+02</wgt>
<wgt id='7039'>0.21576E+02</wgt>
<wgt id='7040'>0.21532E+02</wgt>
<wgt id='7041'>0.21552E+02</wgt>
<wgt id='7042'>0.21519E+02</wgt>
<wgt id='7043'>0.21555E+02</wgt>
<wgt id='7044'>0.21591E+02</wgt>
<wgt id='7045'>0.21502E+02</wgt>
<wgt id='7046'>0.21543E+02</wgt>
<wgt id='7047'>0.21549E+02</wgt>
<wgt id='7048'>0.21551E+02</wgt>
<wgt id='7049'>0.21526E+02</wgt>
<wgt id='7050'>0.21542E+02</wgt>
<wgt id='7060'>0.35357E+02</wgt>
<wgt id='8000'>0.22568E+02</wgt>
<wgt id='8001'>0.22564E+02</wgt>
<wgt id='8002'>0.22571E+02</wgt>
<wgt id='8003'>0.22563E+02</wgt>
<wgt id='8004'>0.22567E+02</wgt>
<wgt id='8005'>0.22534E+02</wgt>
<wgt id='8006'>0.22578E+02</wgt>
<wgt id='8007'>0.22558E+02</wgt>
<wgt id='8008'>0.22503E+02</wgt>
<wgt id='8009'>0.22561E+02</wgt>
<wgt id='8010'>0.22559E+02</wgt>
<wgt id='8011'>0.22614E+02</wgt>
<wgt id='8012'>0.22605E+02</wgt>
<wgt id='8013'>0.22573E+02</wgt>
<wgt id='8014'>0.22538E+02</wgt>
<wgt id='8015'>0.22541E+02</wgt>
<wgt id='8016'>0.22561E+02</wgt>
<wgt id='8017'>0.22533E+02</wgt>
<wgt id='8018'>0.22539E+02</wgt>
<wgt id='8019'>0.22581E+02</wgt>
<wgt id='8020'>0.22434E+02</wgt>
<wgt id='8021'>0.22560E+02</wgt>
<wgt id='8022'>0.22488E+02</wgt>
<wgt id='8023'>0.22540E+02</wgt>
<wgt id='8024'>0.22621E+02</wgt>
<wgt id='8025'>0.22626E+02</wgt>
<wgt id='8026'>0.22600E+02</wgt>
<wgt id='8027'>0.22488E+02</wgt>
<wgt id='8028'>0.22578E+02</wgt>
<wgt id='8029'>0.22404E+02</wgt>
<wgt id='8500'>0.22834E+02</wgt>
<wgt id='8501'>0.22832E+02</wgt>
<wgt id='8502'>0.22896E+02</wgt>
<wgt id='8503'>0.22929E+02</wgt>
<wgt id='8504'>0.22820E+02</wgt>
<wgt id='8505'>0.22791E+02</wgt>
<wgt id='8506'>0.22776E+02</wgt>
<wgt id='8507'>0.22919E+02</wgt>
<wgt id='8508'>0.23047E+02</wgt>
<wgt id='8509'>0.22729E+02</wgt>
<wgt id='8510'>0.22933E+02</wgt>
<wgt id='8511'>0.22865E+02</wgt>
<wgt id='8512'>0.22741E+02</wgt>
<wgt id='8513'>0.22871E+02</wgt>
<wgt id='8514'>0.22822E+02</wgt>
<wgt id='8515'>0.22810E+02</wgt>
<wgt id='8516'>0.22852E+02</wgt>
<wgt id='8517'>0.22814E+02</wgt>
<wgt id='8518'>0.22885E+02</wgt>
<wgt id='8519'>0.22788E+02</wgt>
<wgt id='8520'>0.22892E+02</wgt>
<wgt id='8521'>0.22822E+02</wgt>
<wgt id='8522'>0.22777E+02</wgt>
<wgt id='8523'>0.22975E+02</wgt>
<wgt id='8524'>0.22777E+02</wgt>
<wgt id='8525'>0.22877E+02</wgt>
<wgt id='8526'>0.22795E+02</wgt>
<wgt id='8527'>0.22754E+02</wgt>
<wgt id='8528'>0.22966E+02</wgt>
<wgt id='8529'>0.22782E+02</wgt>
<wgt id='8530'>0.22798E+02</wgt>
<wgt id='8531'>0.22845E+02</wgt>
<wgt id='8532'>0.22816E+02</wgt>
<wgt id='8533'>0.22820E+02</wgt>
<wgt id='8534'>0.22763E+02</wgt>
<wgt id='8535'>0.22931E+02</wgt>
<wgt id='8536'>0.22821E+02</wgt>
<wgt id='8537'>0.22975E+02</wgt>
<wgt id='8538'>0.22854E+02</wgt>
<wgt id='8539'>0.22915E+02</wgt>
<wgt id='8540'>0.22790E+02</wgt>
<wgt id='8541'>0.22915E+02</wgt>
<wgt id='8542'>0.22954E+02</wgt>
<wgt id='8543'>0.22812E+02</wgt>
<wgt id='8544'>0.22753E+02</wgt>
<wgt id='8545'>0.22887E+02</wgt>
<wgt id='8546'>0.23031E+02</wgt>
<wgt id='8547'>0.22850E+02</wgt>
<wgt id='8548'>0.22755E+02</wgt>
<wgt id='8549'>0.22885E+02</wgt>
<wgt id='8550'>0.22806E+02</wgt>
<wgt id='8551'>0.22966E+02</wgt>
<wgt id='8552'>0.22850E+02</wgt>
<wgt id='8553'>0.22865E+02</wgt>
<wgt id='8554'>0.22801E+02</wgt>
<wgt id='8555'>0.22872E+02</wgt>
<wgt id='8556'>0.22798E+02</wgt>
<wgt id='8557'>0.22869E+02</wgt>
<wgt id='8558'>0.22812E+02</wgt>
<wgt id='8559'>0.22826E+02</wgt>
<wgt id='8560'>0.22792E+02</wgt>
<wgt id='8561'>0.22781E+02</wgt>
<wgt id='8562'>0.22879E+02</wgt>
<wgt id='8563'>0.22874E+02</wgt>
<wgt id='8564'>0.22792E+02</wgt>
<wgt id='8565'>0.22844E+02</wgt>
<wgt id='8566'>0.22834E+02</wgt>
<wgt id='8567'>0.22852E+02</wgt>
<wgt id='8568'>0.22835E+02</wgt>
<wgt id='8569'>0.22851E+02</wgt>
<wgt id='8570'>0.22828E+02</wgt>
<wgt id='8571'>0.22824E+02</wgt>
<wgt id='8572'>0.22842E+02</wgt>
<wgt id='8573'>0.22804E+02</wgt>
<wgt id='8574'>0.22853E+02</wgt>
<wgt id='8575'>0.22793E+02</wgt>
<wgt id='8576'>0.22863E+02</wgt>
<wgt id='8577'>0.22803E+02</wgt>
<wgt id='8578'>0.22852E+02</wgt>
<wgt id='8579'>0.22877E+02</wgt>
<wgt id='8580'>0.22824E+02</wgt>
<wgt id='8581'>0.22832E+02</wgt>
<wgt id='8582'>0.22838E+02</wgt>
<wgt id='8583'>0.22826E+02</wgt>
<wgt id='8584'>0.22848E+02</wgt>
<wgt id='8585'>0.22836E+02</wgt>
<wgt id='8586'>0.22866E+02</wgt>
<wgt id='8587'>0.22846E+02</wgt>
<wgt id='8588'>0.22820E+02</wgt>
<wgt id='8589'>0.22849E+02</wgt>
<wgt id='8590'>0.22834E+02</wgt>
<wgt id='8591'>0.22830E+02</wgt>
<wgt id='8592'>0.22856E+02</wgt>
<wgt id='8593'>0.22820E+02</wgt>
<wgt id='8594'>0.22831E+02</wgt>
<wgt id='8595'>0.22835E+02</wgt>
<wgt id='8596'>0.22834E+02</wgt>
<wgt id='8597'>0.22841E+02</wgt>
<wgt id='8598'>0.22840E+02</wgt>
<wgt id='8599'>0.22841E+02</wgt>
<wgt id='8600'>0.22836E+02</wgt>
<wgt id='8601'>0.22336E+02</wgt>
<wgt id='8602'>0.23312E+02</wgt>
<wgt id='9000'>0.21485E+02</wgt>
<wgt id='9001'>0.21527E+02</wgt>
<wgt id='9002'>0.21510E+02</wgt>
<wgt id='9003'>0.21402E+02</wgt>
<wgt id='9004'>0.21499E+02</wgt>
<wgt id='9005'>0.21515E+02</wgt>
<wgt id='9006'>0.21461E+02</wgt>
<wgt id='9007'>0.21539E+02</wgt>
<wgt id='9008'>0.21563E+02</wgt>
<wgt id='9009'>0.21517E+02</wgt>
<wgt id='9010'>0.21483E+02</wgt>
<wgt id='9011'>0.21562E+02</wgt>
<wgt id='9012'>0.21293E+02</wgt>
<wgt id='9013'>0.21377E+02</wgt>
<wgt id='9014'>0.21367E+02</wgt>
<wgt id='9015'>0.21506E+02</wgt>
<wgt id='9016'>0.21438E+02</wgt>
<wgt id='9017'>0.21503E+02</wgt>
<wgt id='9018'>0.21500E+02</wgt>
<wgt id='9019'>0.21404E+02</wgt>
<wgt id='9020'>0.21519E+02</wgt>
<wgt id='9021'>0.21553E+02</wgt>
<wgt id='9022'>0.21405E+02</wgt>
<wgt id='9023'>0.21589E+02</wgt>
<wgt id='9024'>0.21639E+02</wgt>
<wgt id='9025'>0.21499E+02</wgt>
<wgt id='9026'>0.21518E+02</wgt>
<wgt id='9027'>0.21490E+02</wgt>
<wgt id='9028'>0.21425E+02</wgt>
<wgt id='9029'>0.21426E+02</wgt>
<wgt id='9030'>0.21498E+02</wgt>
<wgt id='9031'>0.21520E+02</wgt>
<wgt id='9032'>0.21572E+02</wgt>
<wgt id='9033'>0.21512E+02</wgt>
<wgt id='9034'>0.21517E+02</wgt>
<wgt id='9035'>0.21395E+02</wgt>
<wgt id='9036'>0.21518E+02</wgt>
<wgt id='9037'>0.21469E+02</wgt>
<wgt id='9038'>0.21544E+02</wgt>
<wgt id='9039'>0.21457E+02</wgt>
<wgt id='9040'>0.21384E+02</wgt>
<wgt id='9041'>0.21526E+02</wgt>
<wgt id='9042'>0.21412E+02</wgt>
<wgt id='9043'>0.21461E+02</wgt>
<wgt id='9044'>0.21441E+02</wgt>
<wgt id='9045'>0.21561E+02</wgt>
<wgt id='9046'>0.21472E+02</wgt>
<wgt id='9047'>0.21522E+02</wgt>
<wgt id='9048'>0.21463E+02</wgt>
<wgt id='9049'>0.21506E+02</wgt>
<wgt id='9050'>0.21480E+02</wgt>
<wgt id='9051'>0.21591E+02</wgt>
<wgt id='9052'>0.21641E+02</wgt>
<wgt id='9053'>0.21607E+02</wgt>
<wgt id='9054'>0.21506E+02</wgt>
<wgt id='9055'>0.21502E+02</wgt>
<wgt id='9056'>0.21523E+02</wgt>
<wgt id='9057'>0.21408E+02</wgt>
<wgt id='9058'>0.21529E+02</wgt>
<wgt id='9059'>0.21498E+02</wgt>
<wgt id='9060'>0.21442E+02</wgt>
<wgt id='9061'>0.21537E+02</wgt>
<wgt id='9062'>0.21496E+02</wgt>
<wgt id='9063'>0.21479E+02</wgt>
<wgt id='9064'>0.21496E+02</wgt>
<wgt id='9065'>0.21450E+02</wgt>
<wgt id='9066'>0.21502E+02</wgt>
<wgt id='9067'>0.21466E+02</wgt>
<wgt id='9068'>0.21499E+02</wgt>
<wgt id='9069'>0.21476E+02</wgt>
<wgt id='9070'>0.21507E+02</wgt>
<wgt id='9071'>0.21440E+02</wgt>
<wgt id='9072'>0.21478E+02</wgt>
<wgt id='9073'>0.21463E+02</wgt>
<wgt id='9074'>0.21498E+02</wgt>
<wgt id='9075'>0.21467E+02</wgt>
<wgt id='9076'>0.21492E+02</wgt>
<wgt id='9077'>0.21515E+02</wgt>
<wgt id='9078'>0.21505E+02</wgt>
<wgt id='9079'>0.21441E+02</wgt>
<wgt id='9080'>0.21508E+02</wgt>
<wgt id='9081'>0.21508E+02</wgt>
<wgt id='9082'>0.21477E+02</wgt>
<wgt id='9083'>0.21474E+02</wgt>
<wgt id='9084'>0.21486E+02</wgt>
<wgt id='9085'>0.21453E+02</wgt>
<wgt id='9086'>0.21501E+02</wgt>
<wgt id='9087'>0.21459E+02</wgt>
<wgt id='9088'>0.21478E+02</wgt>
<wgt id='9089'>0.21482E+02</wgt>
<wgt id='9090'>0.21498E+02</wgt>
<wgt id='9091'>0.21470E+02</wgt>
<wgt id='9092'>0.21495E+02</wgt>
<wgt id='9093'>0.21478E+02</wgt>
<wgt id='9094'>0.21464E+02</wgt>
<wgt id='9095'>0.21499E+02</wgt>
<wgt id='9096'>0.21480E+02</wgt>
<wgt id='9097'>0.21489E+02</wgt>
<wgt id='9098'>0.21492E+02</wgt>
<wgt id='9099'>0.21475E+02</wgt>
<wgt id='9100'>0.21497E+02</wgt>
<wgt id='9101'>0.21084E+02</wgt>
<wgt id='9102'>0.21842E+02</wgt>
<wgt id='10000'>0.22833E+02</wgt>
<wgt id='10001'>0.22878E+02</wgt>
<wgt id='10002'>0.22799E+02</wgt>
<wgt id='10003'>0.22856E+02</wgt>
<wgt id='10004'>0.22985E+02</wgt>
<wgt id='10005'>0.23076E+02</wgt>
<wgt id='10006'>0.22962E+02</wgt>
<wgt id='10007'>0.22795E+02</wgt>
<wgt id='10008'>0.22882E+02</wgt>
<wgt id='10009'>0.22804E+02</wgt>
<wgt id='10010'>0.22813E+02</wgt>
<wgt id='10011'>0.22826E+02</wgt>
<wgt id='10012'>0.23242E+02</wgt>
<wgt id='10013'>0.22803E+02</wgt>
<wgt id='10014'>0.22862E+02</wgt>
<wgt id='10015'>0.22861E+02</wgt>
<wgt id='10016'>0.22855E+02</wgt>
<wgt id='10017'>0.22704E+02</wgt>
<wgt id='10018'>0.22831E+02</wgt>
<wgt id='10019'>0.22770E+02</wgt>
<wgt id='10020'>0.22822E+02</wgt>
<wgt id='10021'>0.22851E+02</wgt>
<wgt id='10022'>0.22846E+02</wgt>
<wgt id='10023'>0.22809E+02</wgt>
<wgt id='10024'>0.22864E+02</wgt>
<wgt id='10025'>0.22838E+02</wgt>
<wgt id='10026'>0.22826E+02</wgt>
<wgt id='10027'>0.22822E+02</wgt>
<wgt id='10028'>0.22835E+02</wgt>
<wgt id='10029'>0.22835E+02</wgt>
<wgt id='10030'>0.22821E+02</wgt>
<wgt id='10031'>0.22336E+02</wgt>
<wgt id='10032'>0.23312E+02</wgt>
<wgt id='11000'>0.21484E+02</wgt>
<wgt id='11001'>0.21616E+02</wgt>
<wgt id='11002'>0.21492E+02</wgt>
<wgt id='11003'>0.21458E+02</wgt>
<wgt id='11004'>0.21468E+02</wgt>
<wgt id='11005'>0.21241E+02</wgt>
<wgt id='11006'>0.21487E+02</wgt>
<wgt id='11007'>0.21475E+02</wgt>
<wgt id='11008'>0.21372E+02</wgt>
<wgt id='11009'>0.21334E+02</wgt>
<wgt id='11010'>0.21517E+02</wgt>
<wgt id='11011'>0.21465E+02</wgt>
<wgt id='11012'>0.21493E+02</wgt>
<wgt id='11013'>0.21542E+02</wgt>
<wgt id='11014'>0.21497E+02</wgt>
<wgt id='11015'>0.21539E+02</wgt>
<wgt id='11016'>0.21444E+02</wgt>
<wgt id='11017'>0.21189E+02</wgt>
<wgt id='11018'>0.21471E+02</wgt>
<wgt id='11019'>0.21510E+02</wgt>
<wgt id='11020'>0.21465E+02</wgt>
<wgt id='11021'>0.21523E+02</wgt>
<wgt id='11022'>0.21679E+02</wgt>
<wgt id='11023'>0.21470E+02</wgt>
<wgt id='11024'>0.21419E+02</wgt>
<wgt id='11025'>0.21458E+02</wgt>
<wgt id='11026'>0.21470E+02</wgt>
<wgt id='11027'>0.21479E+02</wgt>
<wgt id='11028'>0.21448E+02</wgt>
<wgt id='11029'>0.21468E+02</wgt>
<wgt id='11030'>0.21477E+02</wgt>
<wgt id='11031'>0.21084E+02</wgt>
<wgt id='11032'>0.21842E+02</wgt>
<wgt id='12000'>0.25409E+02</wgt>
<wgt id='12001'>0.25387E+02</wgt>
<wgt id='12002'>0.25430E+02</wgt>
<wgt id='12003'>0.25409E+02</wgt>
<wgt id='12004'>0.25408E+02</wgt>
<wgt id='12005'>0.25322E+02</wgt>
<wgt id='12006'>0.25495E+02</wgt>
<wgt id='12007'>0.25507E+02</wgt>
<wgt id='12008'>0.25311E+02</wgt>
<wgt id='12009'>0.25634E+02</wgt>
<wgt id='12010'>0.25184E+02</wgt>
<wgt id='12011'>0.25424E+02</wgt>
<wgt id='12012'>0.25393E+02</wgt>
<wgt id='12013'>0.25628E+02</wgt>
<wgt id='12014'>0.25191E+02</wgt>
<wgt id='12015'>0.25479E+02</wgt>
<wgt id='12016'>0.25325E+02</wgt>
<wgt id='12017'>0.25544E+02</wgt>
<wgt id='12018'>0.25263E+02</wgt>
<wgt id='12019'>0.25215E+02</wgt>
<wgt id='12020'>0.25604E+02</wgt>
<wgt id='12021'>0.25463E+02</wgt>
<wgt id='12022'>0.25347E+02</wgt>
<wgt id='12023'>0.25219E+02</wgt>
<wgt id='12024'>0.25531E+02</wgt>
<wgt id='12025'>0.25462E+02</wgt>
<wgt id='12026'>0.25223E+02</wgt>
<wgt id='12027'>0.25297E+02</wgt>
<wgt id='12028'>0.25507E+02</wgt>
<wgt id='12050'>0.25409E+02</wgt>
<wgt id='12051'>0.25327E+02</wgt>
<wgt id='12052'>0.25464E+02</wgt>
<wgt id='12053'>0.25304E+02</wgt>
<wgt id='12054'>0.25451E+02</wgt>
<wgt id='12055'>0.25530E+02</wgt>
<wgt id='12056'>0.25254E+02</wgt>
<wgt id='12057'>0.25364E+02</wgt>
<wgt id='12058'>0.25455E+02</wgt>
<wgt id='12059'>0.25361E+02</wgt>
<wgt id='12060'>0.25466E+02</wgt>
<wgt id='12061'>0.25347E+02</wgt>
<wgt id='12062'>0.25484E+02</wgt>
<wgt id='12063'>0.24899E+02</wgt>
<wgt id='13000'>0.23535E+02</wgt>
<wgt id='13001'>0.23523E+02</wgt>
<wgt id='13002'>0.23550E+02</wgt>
<wgt id='13003'>0.23550E+02</wgt>
<wgt id='13004'>0.23524E+02</wgt>
<wgt id='13005'>0.23452E+02</wgt>
<wgt id='13006'>0.23621E+02</wgt>
<wgt id='13007'>0.23545E+02</wgt>
<wgt id='13008'>0.23529E+02</wgt>
<wgt id='13009'>0.23695E+02</wgt>
<wgt id='13010'>0.23379E+02</wgt>
<wgt id='13011'>0.23706E+02</wgt>
<wgt id='13012'>0.23368E+02</wgt>
<wgt id='13013'>0.23714E+02</wgt>
<wgt id='13014'>0.23360E+02</wgt>
<wgt id='13015'>0.23570E+02</wgt>
<wgt id='13016'>0.23499E+02</wgt>
<wgt id='13017'>0.23401E+02</wgt>
<wgt id='13018'>0.23670E+02</wgt>
<wgt id='13019'>0.23452E+02</wgt>
<wgt id='13020'>0.23621E+02</wgt>
<wgt id='13021'>0.23344E+02</wgt>
<wgt id='13022'>0.23720E+02</wgt>
<wgt id='13023'>0.23505E+02</wgt>
<wgt id='13024'>0.23444E+02</wgt>
<wgt id='13025'>0.23459E+02</wgt>
<wgt id='13026'>0.23497E+02</wgt>
<wgt id='13027'>0.23487E+02</wgt>
<wgt id='13028'>0.23597E+02</wgt>
<wgt id='13050'>0.23536E+02</wgt>
<wgt id='13051'>0.23534E+02</wgt>
<wgt id='13052'>0.23941E+02</wgt>
<wgt id='13053'>0.23536E+02</wgt>
<wgt id='13054'>0.23534E+02</wgt>
<wgt id='13055'>0.23609E+02</wgt>
<wgt id='13056'>0.23429E+02</wgt>
<wgt id='13057'>0.23498E+02</wgt>
<wgt id='13058'>0.23613E+02</wgt>
<wgt id='13059'>0.23354E+02</wgt>
<wgt id='13060'>0.23647E+02</wgt>
<wgt id='13061'>0.23306E+02</wgt>
<wgt id='13062'>0.23739E+02</wgt>
<wgt id='13063'>0.23123E+02</wgt>
<wgt id='14000'>0.22522E+02</wgt>
<wgt id='14001'>0.22520E+02</wgt>
<wgt id='14002'>0.22518E+02</wgt>
<wgt id='14003'>0.22516E+02</wgt>
<wgt id='14004'>0.22514E+02</wgt>
<wgt id='14005'>0.22512E+02</wgt>
<wgt id='14006'>0.22510E+02</wgt>
<wgt id='14007'>0.22508E+02</wgt>
<wgt id='14008'>0.22506E+02</wgt>
<wgt id='14009'>0.22504E+02</wgt>
<wgt id='14010'>0.22502E+02</wgt>
<wgt id='14011'>0.22500E+02</wgt>
<wgt id='14012'>0.22498E+02</wgt>
<wgt id='14013'>0.22496E+02</wgt>
<wgt id='14014'>0.22494E+02</wgt>
<wgt id='14015'>0.22492E+02</wgt>
<wgt id='14016'>0.22490E+02</wgt>
<wgt id='14017'>0.22488E+02</wgt>
<wgt id='14018'>0.22486E+02</wgt>
<wgt id='14019'>0.22484E+02</wgt>
<wgt id='14020'>0.22482E+02</wgt>
<wgt id='14021'>0.22480E+02</wgt>
<wgt id='14022'>0.22478E+02</wgt>
<wgt id='14023'>0.22476E+02</wgt>
<wgt id='14024'>0.22474E+02</wgt>
<wgt id='14025'>0.22472E+02</wgt>
<wgt id='14026'>0.22470E+02</wgt>
<wgt id='14027'>0.22468E+02</wgt>
<wgt id='14028'>0.22466E+02</wgt>
<wgt id='14029'>0.22464E+02</wgt>
<wgt id='14030'>0.22462E+02</wgt>
<wgt id='15000'>0.21182E+02</wgt>
<wgt id='15001'>0.21224E+02</wgt>
<wgt id='15002'>0.21206E+02</wgt>
<wgt id='15003'>0.21101E+02</wgt>
<wgt id='15004'>0.21196E+02</wgt>
<wgt id='15005'>0.21212E+02</wgt>
<wgt id='15006'>0.21158E+02</wgt>
<wgt id='15007'>0.21234E+02</wgt>
<wgt id='15008'>0.21259E+02</wgt>
<wgt id='15009'>0.21213E+02</wgt>
<wgt id='15010'>0.21180E+02</wgt>
<wgt id='15011'>0.21257E+02</wgt>
<wgt id='15012'>0.20993E+02</wgt>
<wgt id='15013'>0.21076E+02</wgt>
<wgt id='15014'>0.21065E+02</wgt>
<wgt id='15015'>0.21202E+02</wgt>
<wgt id='15016'>0.21136E+02</wgt>
<wgt id='15017'>0.21199E+02</wgt>
<wgt id='15018'>0.21197E+02</wgt>
<wgt id='15019'>0.21102E+02</wgt>
<wgt id='15020'>0.21215E+02</wgt>
<wgt id='15021'>0.21248E+02</wgt>
<wgt id='15022'>0.21103E+02</wgt>
<wgt id='15023'>0.21283E+02</wgt>
<wgt id='15024'>0.21333E+02</wgt>
<wgt id='15025'>0.21196E+02</wgt>
<wgt id='15026'>0.21215E+02</wgt>
<wgt id='15027'>0.21187E+02</wgt>
<wgt id='15028'>0.21123E+02</wgt>
<wgt id='15029'>0.21124E+02</wgt>
<wgt id='15030'>0.21195E+02</wgt>
<wgt id='15031'>0.21216E+02</wgt>
<wgt id='15032'>0.21268E+02</wgt>
<wgt id='15033'>0.21208E+02</wgt>
<wgt id='15034'>0.21213E+02</wgt>
<wgt id='15035'>0.21094E+02</wgt>
<wgt id='15036'>0.21214E+02</wgt>
<wgt id='15037'>0.21166E+02</wgt>
<wgt id='15038'>0.21240E+02</wgt>
<wgt id='15039'>0.21155E+02</wgt>
<wgt id='15040'>0.21082E+02</wgt>
<wgt id='15041'>0.21222E+02</wgt>
<wgt id='15042'>0.21110E+02</wgt>
<wgt id='15043'>0.21159E+02</wgt>
<wgt id='15044'>0.21138E+02</wgt>
<wgt id='15045'>0.21257E+02</wgt>
<wgt id='15046'>0.21169E+02</wgt>
<wgt id='15047'>0.21218E+02</wgt>
<wgt id='15048'>0.21160E+02</wgt>
<wgt id='15049'>0.21202E+02</wgt>
<wgt id='15050'>0.21177E+02</wgt>
<wgt id='15051'>0.21287E+02</wgt>
<wgt id='15052'>0.21336E+02</wgt>
<wgt id='15053'>0.21303E+02</wgt>
<wgt id='15054'>0.21203E+02</wgt>
<wgt id='15055'>0.21198E+02</wgt>
<wgt id='15056'>0.21219E+02</wgt>
<wgt id='15057'>0.21106E+02</wgt>
<wgt id='15058'>0.21226E+02</wgt>
<wgt id='15059'>0.21194E+02</wgt>
<wgt id='15060'>0.21140E+02</wgt>
<wgt id='15061'>0.21233E+02</wgt>
<wgt id='15062'>0.21193E+02</wgt>
<wgt id='15063'>0.21176E+02</wgt>
<wgt id='15064'>0.21192E+02</wgt>
<wgt id='15065'>0.21147E+02</wgt>
<wgt id='15066'>0.21199E+02</wgt>
<wgt id='15067'>0.21163E+02</wgt>
<wgt id='15068'>0.21196E+02</wgt>
<wgt id='15069'>0.21172E+02</wgt>
<wgt id='15070'>0.21204E+02</wgt>
<wgt id='15071'>0.21137E+02</wgt>
<wgt id='15072'>0.21176E+02</wgt>
<wgt id='15073'>0.21160E+02</wgt>
<wgt id='15074'>0.21195E+02</wgt>
<wgt id='15075'>0.21164E+02</wgt>
<wgt id='15076'>0.21189E+02</wgt>
<wgt id='15077'>0.21212E+02</wgt>
<wgt id='15078'>0.21202E+02</wgt>
<wgt id='15079'>0.21139E+02</wgt>
<wgt id='15080'>0.21204E+02</wgt>
<wgt id='15081'>0.21204E+02</wgt>
<wgt id='15082'>0.21174E+02</wgt>
<wgt id='15083'>0.21171E+02</wgt>
<wgt id='15084'>0.21182E+02</wgt>
<wgt id='15085'>0.21151E+02</wgt>
<wgt id='15086'>0.21197E+02</wgt>
<wgt id='15087'>0.21156E+02</wgt>
<wgt id='15088'>0.21175E+02</wgt>
<wgt id='15089'>0.21179E+02</wgt>
<wgt id='15090'>0.21195E+02</wgt>
<wgt id='15091'>0.21167E+02</wgt>
<wgt id='15092'>0.21192E+02</wgt>
<wgt id='15093'>0.21175E+02</wgt>
<wgt id='15094'>0.21162E+02</wgt>
<wgt id='15095'>0.21195E+02</wgt>
<wgt id='15096'>0.21177E+02</wgt>
<wgt id='15097'>0.21186E+02</wgt>
<wgt id='15098'>0.21189E+02</wgt>
<wgt id='15099'>0.21172E+02</wgt>
<wgt id='15100'>0.21194E+02</wgt>
<wgt id='15101'>0.21182E+02</wgt>
<wgt id='15102'>0.21181E+02</wgt>
<wgt id='15103'>0.21182E+02</wgt>
<wgt id='15104'>0.21182E+02</wgt>
<wgt id='15105'>0.21182E+02</wgt>
<wgt id='15106'>0.21182E+02</wgt>
<wgt id='15107'>0.21181E+02</wgt>
<wgt id='1500'>0.22641E+02</wgt>
<wgt id='1501'>0.21652E+02</wgt>
<wgt id='1502'>0.22104E+02</wgt>
<wgt id='1503'>0.22605E+02</wgt>
<wgt id='1504'>0.23059E+02</wgt>
<wgt id='1505'>0.22330E+02</wgt>
<wgt id='1506'>0.22423E+02</wgt>
<wgt id='1507'>0.23081E+02</wgt>
<wgt id='1508'>0.21510E+02</wgt>
<wgt id='1509'>0.22843E+02</wgt>
<wgt id='1510'>0.23012E+02</wgt>
<wgt id='1511'>0.22931E+02</wgt>
<wgt id='1512'>0.23048E+02</wgt>
<wgt id='1513'>0.22417E+02</wgt>
<wgt id='1514'>0.22291E+02</wgt>
<wgt id='1515'>0.22133E+02</wgt>
<wgt id='1516'>0.22979E+02</wgt>
<wgt id='1517'>0.22228E+02</wgt>
<wgt id='1518'>0.22486E+02</wgt>
<wgt id='1519'>0.22500E+02</wgt>
<wgt id='1520'>0.22512E+02</wgt>
<wgt id='1521'>0.22841E+02</wgt>
<wgt id='1522'>0.22865E+02</wgt>
<wgt id='1523'>0.23792E+02</wgt>
<wgt id='1524'>0.22544E+02</wgt>
<wgt id='1525'>0.22201E+02</wgt>
<wgt id='1526'>0.22688E+02</wgt>
<wgt id='1527'>0.22431E+02</wgt>
<wgt id='1528'>0.22621E+02</wgt>
<wgt id='1529'>0.22107E+02</wgt>
<wgt id='1530'>0.22845E+02</wgt>
<wgt id='1531'>0.22482E+02</wgt>
<wgt id='1532'>0.22552E+02</wgt>
<wgt id='1533'>0.22639E+02</wgt>
<wgt id='1534'>0.23325E+02</wgt>
<wgt id='1535'>0.23330E+02</wgt>
<wgt id='1536'>0.22699E+02</wgt>
<wgt id='1537'>0.21917E+02</wgt>
<wgt id='1538'>0.22536E+02</wgt>
<wgt id='1539'>0.22994E+02</wgt>
<wgt id='1540'>0.22672E+02</wgt>
<wgt id='1541'>0.23267E+02</wgt>
<wgt id='1542'>0.22735E+02</wgt>
<wgt id='1543'>0.23132E+02</wgt>
<wgt id='1544'>0.22701E+02</wgt>
<wgt id='1545'>0.23402E+02</wgt>
<wgt id='1546'>0.23383E+02</wgt>
<wgt id='1547'>0.22056E+02</wgt>
<wgt id='1548'>0.22447E+02</wgt>
<wgt id='1549'>0.21838E+02</wgt>
<wgt id='1550'>0.22368E+02</wgt>
<wgt id='1551'>0.22916E+02</wgt>
<wgt id='1552'>0.22679E+02</wgt>
<wgt id='1553'>0.23013E+02</wgt>
<wgt id='1554'>0.22797E+02</wgt>
<wgt id='1555'>0.23004E+02</wgt>
<wgt id='1556'>0.22466E+02</wgt>
<wgt id='1557'>0.23327E+02</wgt>
<wgt id='1558'>0.22367E+02</wgt>
<wgt id='1559'>0.21702E+02</wgt>
<wgt id='1560'>0.22245E+02</wgt>
<wgt id='1561'>0.22393E+02</wgt>
<wgt id='1562'>0.21514E+02</wgt>
<wgt id='1563'>0.23583E+02</wgt>
<wgt id='1564'>0.21891E+02</wgt>
<wgt id='1565'>0.23865E+02</wgt>
<wgt id='1566'>0.23029E+02</wgt>
<wgt id='1567'>0.23727E+02</wgt>
<wgt id='1568'>0.22602E+02</wgt>
<wgt id='1569'>0.23117E+02</wgt>
<wgt id='1570'>0.22191E+02</wgt>
<wgt id='1571'>0.23817E+02</wgt>
<wgt id='1572'>0.22414E+02</wgt>
<wgt id='1573'>0.23041E+02</wgt>
<wgt id='1574'>0.23341E+02</wgt>
<wgt id='1575'>0.21512E+02</wgt>
<wgt id='1576'>0.22274E+02</wgt>
<wgt id='1577'>0.22976E+02</wgt>
<wgt id='1578'>0.23177E+02</wgt>
<wgt id='1579'>0.22765E+02</wgt>
<wgt id='1580'>0.22571E+02</wgt>
<wgt id='1581'>0.22734E+02</wgt>
<wgt id='1582'>0.22284E+02</wgt>
<wgt id='1583'>0.21922E+02</wgt>
<wgt id='1584'>0.23314E+02</wgt>
<wgt id='1585'>0.21607E+02</wgt>
<wgt id='1586'>0.22556E+02</wgt>
<wgt id='1587'>0.22230E+02</wgt>
<wgt id='1588'>0.22534E+02</wgt>
<wgt id='1589'>0.22420E+02</wgt>
<wgt id='1590'>0.22285E+02</wgt>
<wgt id='1591'>0.22365E+02</wgt>
<wgt id='1592'>0.23241E+02</wgt>
<wgt id='1593'>0.22604E+02</wgt>
<wgt id='1594'>0.23337E+02</wgt>
<wgt id='1595'>0.21016E+02</wgt>
<wgt id='1596'>0.23037E+02</wgt>
<wgt id='1597'>0.22748E+02</wgt>
<wgt id='1598'>0.23467E+02</wgt>
<wgt id='1599'>0.22571E+02</wgt>
<wgt id='1600'>0.21858E+02</wgt>
<wgt id='1601'>0.22310E+02</wgt>
<wgt id='1602'>0.22966E+02</wgt>
<wgt id='1700'>0.21422E+02</wgt>
<wgt id='1800'>0.25939E+02</wgt>
<wgt id='1850'>0.32640E+02</wgt>
<wgt id='1900'>0.27809E+02</wgt>
<wgt id='1950'>0.35532E+02</wgt>
</rwgt>
</event>
</LesHouchesEvents>
